Program Version,EnergyPlus, Version 8.9.0-40101eaafd, YMD=2018.09.19 14:12
1,5,Environment Title[],Latitude[deg],Longitude[deg],Time Zone[],Elevation[m]
2,8,Day of Simulation[],Month[],Day of Month[],DST Indicator[1=yes 0=no],Hour[],StartMinute[],EndMinute[],DayType
3,5,Cumulative Day of Simulation[],Month[],Day of Month[],DST Indicator[1=yes 0=no],DayType  ! When Daily Report Variables Requested
4,2,Cumulative Days of Simulation[],Month[]  ! When Monthly Report Variables Requested
5,1,Cumulative Days of Simulation[] ! When Run Period Report Variables Requested
6,1,Calendar Year of Simulation[] ! When Annual Report Variables Requested
7,1,Environment,Site Outdoor Air Drybulb Temperature [C] !Hourly
167,1,ZONE ONE,Zone Air Temperature [C] !Hourly
230,1,RADIATOR,Baseboard Hot Water Mass Flow Rate [kg/s] !Hourly
231,1,RADIATOR,Baseboard Water Inlet Temperature [C] !Hourly
232,1,RADIATOR,Baseboard Water Outlet Temperature [C] !Hourly
381,1,DISTRICT HEATING 1,District Heating Rate [W] !Hourly
382,1,DISTRICT HEATING 1,District Heating Inlet Temperature [C] !Hourly
383,1,DISTRICT HEATING 1,District Heating Outlet Temperature [C] !Hourly
384,1,DISTRICT HEATING 1,District Heating Mass Flow Rate [kg/s] !Hourly
346,1,DistrictHeating:Facility [J] !Hourly
End of Data Dictionary
1,ANNUAL SIM 1,  41.98, -87.92,  -6.00, 201.00
2,1, 1, 1, 0, 1, 0.00,60.00,Sunday
7,-12.2
167,20.381002836346238
230,0.034996429999999998
231,57.510698686953258
232,45.566082281090469
381,0.0
382,45.66114680564247
383,45.66114680564247
384,0.034996429999999998
346,0.0
2,1, 1, 1, 0, 2, 0.00,60.00,Sunday
7,-11.7
167,19.874244232876437
230,0.03475719659179687
231,55.91210236811026
232,44.378862545341608
381,2050.0
382,45.41734674001855
383,59.52792227246451
384,0.03475719659179687
346,7380000.0
2,1, 1, 1, 0, 3, 0.00,60.00,Sunday
7,-11.1
167,19.805397163189494
230,0.034996429999999998
231,57.05892324763519
232,45.04183929438348
381,2050.0
382,45.223989060925159
383,59.237571761579768
384,0.034996429999999998
346,7380000.0
2,1, 1, 1, 0, 4, 0.00,60.00,Sunday
7,-11.1
167,19.892898471349793
230,0.034996429999999998
231,57.811405663189507
232,45.57066470039875
381,2050.0
382,45.28090450568817
383,59.294449044688608
384,0.034996429999999998
346,7380000.0
2,1, 1, 1, 0, 5, 0.00,60.00,Sunday
7,-10.6
167,20.008224670263706
230,0.034996429999999998
231,58.3546922105764
232,45.967704839849499
381,2050.0
382,45.475488886653497
383,59.48890295891451
384,0.034996429999999998
346,7380000.0
2,1, 1, 1, 0, 6, 0.00,60.00,Sunday
7,-10.6
167,20.109037311643303
230,0.034996429999999998
231,58.78814375109768
232,46.29914355850046
381,2050.0
382,45.72747390595689
383,59.74071902857634
384,0.034996429999999998
346,7380000.0
2,1, 1, 1, 0, 7, 0.00,60.00,Sunday
7,-10.6
167,20.14904270807626
230,0.034996429999999998
231,59.16251038611258
232,46.58579747630005
381,2048.3091508131547
382,45.99849462293577
383,60.0
384,0.034996429999999998
346,7373912.942927357
2,1, 1, 1, 0, 8, 0.00,60.00,Sunday
7,-10.0
167,20.361893546264584
230,0.034996429999999998
231,59.45380936232115
232,46.796471656856969
381,2009.940555888991
382,46.260941068122118
383,60.0
384,0.034996429999999998
346,7235786.001200368
2,1, 1, 1, 0, 9, 0.00,60.00,Sunday
7,-8.9
167,20.327275735054529
230,0.01783997701171875
231,59.604523326069379
232,44.69784072314807
381,1027.8658486710538
382,46.21710098108925
383,60.00000000000001
384,0.01783997701171875
346,3700317.0552157938
2,1, 1, 1, 0,10, 0.00,60.00,Sunday
7,-6.7
167,20.199335522024318
230,0.010406653256835937
231,59.66650414847042
232,43.78063037436888
381,611.9001336634607
382,45.933897549163308
383,60.0
384,0.010406653256835937
346,2202840.4811884586
2,1, 1, 1, 0,11, 0.00,60.00,Sunday
7,-5.0
167,20.158350061327057
230,0.00927883861816406
231,59.70367031833179
232,43.627290723234498
381,554.9315378149637
382,45.692784832311989
383,59.99999999999999
384,0.00927883861816406
346,1997753.5361338694
2,1, 1, 1, 0,12, 0.00,60.00,Sunday
7,-3.3
167,20.188934358680954
230,0.010440829458007811
231,59.7367301294993
232,43.758255244974559
381,633.8072638172505
382,45.47767999118144
383,60.00000000000001
384,0.010440829458007811
346,2281706.149742102
2,1, 1, 1, 0,13, 0.00,60.00,Sunday
7,-2.2
167,20.209237891544896
230,0.011073089179687499
231,59.76861929572375
232,43.86249733895847
381,681.1427723771419
382,45.28408840860641
383,60.00000000000001
384,0.011073089179687499
346,2452113.980557711
2,1, 1, 1, 0,14, 0.00,60.00,Sunday
7,-1.1
167,20.217025898564189
230,0.011278146386718747
231,59.79761509430819
232,43.91210761509339
381,701.6238660718697
382,45.11708808985857
383,60.0
384,0.011278146386718747
346,2525845.9178587307
2,1, 1, 1, 0,15, 0.00,60.00,Sunday
7,-1.1
167,20.233797161154216
230,0.0120300228125
231,59.824012457183069
232,44.021073476445007
381,755.4928070108971
382,44.97592990466591
383,60.000000000000017
384,0.0120300228125
346,2719774.1052392295
2,1, 1, 1, 0,16, 0.00,60.00,Sunday
7,-1.1
167,20.276003251083269
230,0.014832471308593748
231,59.85014421685876
232,44.39842489230497
381,937.7142323596946
382,44.87551104977131
383,60.0
384,0.014832471308593748
346,3375771.2364949008
2,1, 1, 1, 0,17, 0.00,60.00,Sunday
7,-1.1
167,20.328695140017599
230,0.018626029638671876
231,59.87733394505664
232,44.94229859604204
381,1178.9582668042324
382,44.85735082992557
383,59.99999999999999
384,0.018626029638671876
346,4244249.760495236
2,1, 1, 1, 0,18, 0.00,60.00,Sunday
7,-1.7
167,20.38099162574099
230,0.0211892447265625
231,59.903343585987638
232,45.33155543937487
381,1334.345274480687
382,44.934745827391669
383,60.0
384,0.0211892447265625
346,4803642.9881304739
2,1, 1, 1, 0,19, 0.00,60.00,Sunday
7,-2.2
167,20.415970341704054
230,0.023171464394531245
231,59.92587931601284
232,45.63827645787831
381,1444.9629732895328
382,45.08149644700861
383,60.0
384,0.023171464394531245
346,5201866.703842318
2,1, 1, 1, 0,20, 0.00,60.00,Sunday
7,-1.1
167,20.402072840764825
230,0.022556292773437494
231,59.9436753939094
232,45.577670383671868
381,1393.2377303191256
382,45.22332975764166
383,60.0
384,0.022556292773437494
346,5015655.829148852
2,1, 1, 1, 0,21, 0.00,60.00,Sunday
7,-1.7
167,20.39080590952066
230,0.02194112115234375
231,59.9568813467221
232,45.496223506197079
381,1347.1261129404902
382,45.311864272560828
383,60.0
384,0.02194112115234375
346,4849654.006585765
2,1, 1, 1, 0,22, 0.00,60.00,Sunday
7,-1.1
167,20.40941611921109
230,0.022556292773437494
231,59.96698017775302
232,45.583387040985119
381,1378.3702197288042
382,45.38112484897551
383,60.0
384,0.022556292773437494
346,4962132.791023695
2,1, 1, 1, 0,23, 0.00,60.00,Sunday
7,-1.7
167,20.421018440100118
230,0.023581578808593748
231,59.974958458411787
232,45.73632854727251
381,1432.7124211789571
382,45.465496747209879
383,59.99999999999999
384,0.023581578808593748
346,5157764.716244246
2,1, 1, 1, 0,24, 0.00,60.00,Sunday
7,-1.7
167,20.422867506589829
230,0.024128398027343749
231,59.98119339364098
232,45.81951412445133
381,1456.401116435827
382,45.56008639920281
383,60.000000000000017
384,0.024128398027343749
346,5243044.019168977
End of Data
 Number of Records Written=         240
