Program Version,EnergyPlus, Version 8.9.0-40101eaafd, YMD=2018.12.10 16:32
1,5,Environment Title[],Latitude[deg],Longitude[deg],Time Zone[],Elevation[m]
2,8,Day of Simulation[],Month[],Day of Month[],DST Indicator[1=yes 0=no],Hour[],StartMinute[],EndMinute[],DayType
3,5,Cumulative Day of Simulation[],Month[],Day of Month[],DST Indicator[1=yes 0=no],DayType  ! When Daily Report Variables Requested
4,2,Cumulative Days of Simulation[],Month[]  ! When Monthly Report Variables Requested
5,1,Cumulative Days of Simulation[] ! When Run Period Report Variables Requested
6,1,Calendar Year of Simulation[] ! When Annual Report Variables Requested
7,1,Environment,Site Outdoor Air Drybulb Temperature [C] !Hourly
94,1,ZONE ONE,Zone Air Temperature [C] !Hourly
95,1,RADIATOR,Baseboard Total Heating Rate [W] !Hourly
158,1,RADIATOR,Baseboard Hot Water Mass Flow Rate [kg/s] !Hourly
159,1,RADIATOR,Baseboard Water Inlet Temperature [C] !Hourly
160,1,RADIATOR,Baseboard Water Outlet Temperature [C] !Hourly
198,1,DISTRICT HEATING 1,District Heating Rate [W] !Hourly
199,1,DISTRICT HEATING 1,District Heating Inlet Temperature [C] !Hourly
200,1,DISTRICT HEATING 1,District Heating Outlet Temperature [C] !Hourly
201,1,DISTRICT HEATING 1,District Heating Mass Flow Rate [kg/s] !Hourly
163,1,DistrictHeating:Facility [J] !Hourly
End of Data Dictionary
1,ANNUAL SIM 1,  59.65,  17.95,   1.00,  61.00
2,1, 1, 1, 0, 1, 0.00,60.00,Sunday
7,4.0
94,21.97647019921697
95,1072.461156907263
158,0.03940027763671875
159,58.08728135779686
160,49.17324829228415
198,0.0
199,50.43322318291685
200,50.43322318291685
201,0.03940027763671875
163,0.0
2,1, 1, 1, 0, 2, 0.00,60.00,Sunday
7,5.3
94,21.984239317526954
95,1022.8784856680927
158,0.04193908115234375
159,54.94771544935543
160,46.91042089371349
198,0.0
199,49.47725988400089
200,49.47725988400089
201,0.04193908115234375
163,0.0
2,1, 1, 1, 0, 3, 0.00,60.00,Sunday
7,6.2
94,21.981705798237586
95,973.4206171026296
158,0.041109087695312507
159,53.87367167770314
160,46.06556762097932
198,1114.931003020045
199,48.25862457716344
200,54.749059200681688
201,0.041109087695312507
163,4013751.610872162
2,1, 1, 1, 0, 4, 0.00,60.00,Sunday
7,6.8
94,21.976705400370699
95,938.2892669346893
158,0.039400277636718748
159,53.717089943094837
160,45.87969101992624
198,807.550567514389
199,47.42391692691879
200,52.3260653295161
201,0.039400277636718748
163,2907182.0430518
2,1, 1, 1, 0, 5, 0.00,60.00,Sunday
7,7.2
94,21.9776588713447
95,917.975611376975
158,0.039400277636718748
159,53.03716947276338
160,45.36729072032175
198,790.4233631024593
199,46.76324043045685
200,51.5624011186889
201,0.039400277636718748
163,2845524.1071688535
2,1, 1, 1, 0, 6, 0.00,60.00,Sunday
7,7.5
94,21.97867065604604
95,904.8283423062708
158,0.0395467470703125
159,52.516941128180409
160,44.98073232595583
198,919.7587969431376
199,46.17684574397528
200,51.741191403029109
201,0.0395467470703125
163,3311131.668995295
2,1, 1, 1, 0, 7, 0.00,60.00,Sunday
7,7.5
94,21.98063940648842
95,900.8602611708138
158,0.0401326248046875
159,52.08557810756666
160,44.67749842989291
198,904.7546306286076
199,45.68682276636548
200,51.08052819226438
201,0.0401326248046875
163,3257116.6702629874
2,1, 1, 1, 0, 8, 0.00,60.00,Sunday
7,6.7
94,22.247160843907908
95,1021.2174565684438
158,0.0499949
159,51.50145528440832
160,44.58570012394782
198,1074.0704939892294
199,45.264707366099617
200,50.40425978515008
201,0.0499949
163,3866653.7783612257
2,1, 1, 1, 0, 9, 0.00,60.00,Sunday
7,6.0
94,22.206300537013225
95,988.0895679483643
158,0.0499949
159,50.79718827110341
160,44.11778032913452
198,979.8904497877872
199,44.87172654508456
200,49.560675869531859
201,0.0499949
163,3527605.619236034
2,1, 1, 1, 0,10, 0.00,60.00,Sunday
7,5.2
94,21.93128266227487
95,927.0228318341713
158,0.0499949
159,48.99868002403103
160,42.72976914324848
198,45.073448519279128
199,44.21672740737941
200,44.432411840298168
201,0.0499949
163,162264.41466940486
2,1, 1, 1, 0,11, 0.00,60.00,Sunday
7,5.2
94,21.758571093580856
95,859.1084415983955
158,0.0499949
159,46.82303264130137
160,40.99827813530718
198,186.11310747486153
199,43.145801671360278
200,44.0363858481466
201,0.0499949
163,670007.1869095014
2,1, 1, 1, 0,12, 0.00,60.00,Sunday
7,5.2
94,21.686554989679505
95,811.9121804486066
158,0.0499949
159,45.403097876236909
160,39.8698537082
198,303.91084243083068
199,41.926395097534697
200,43.38066229609436
201,0.0499949
163,1094079.0327509905
2,1, 1, 1, 0,13, 0.00,60.00,Sunday
7,5.2
94,21.600649204975786
95,774.3213685950744
158,0.0499949
159,44.22511320589447
160,38.950592420770238
198,315.6287818660131
199,40.79990126847313
200,42.31024088228126
201,0.0499949
163,1136263.6147176473
2,1, 1, 1, 0,14, 0.00,60.00,Sunday
7,4.6
94,21.415125471084488
95,736.5146154567609
158,0.0499949
159,43.05898475980511
160,38.03725995326021
198,276.6003109041856
199,39.76836623447287
200,41.09194770343909
201,0.0499949
163,995761.1192550683
2,1, 1, 1, 0,15, 0.00,60.00,Sunday
7,4.1
94,20.693107280624746
95,683.7137419169703
158,0.049994899999999998
159,41.892074871387489
160,37.011019051026988
198,243.48485347243216
199,38.80028194343168
200,39.96540008439322
201,0.049994899999999998
163,876545.4725007557
2,1, 1, 1, 0,16, 0.00,60.00,Sunday
7,3.5
94,19.96174670331001
95,675.2422222357836
158,0.049994899999999998
159,40.8260147339415
160,36.008071299290168
198,293.1862009413747
199,37.76909934515012
200,39.17204723502807
201,0.049994899999999998
163,1055470.323388949
2,1, 1, 1, 0,17, 0.00,60.00,Sunday
7,3.2
94,19.721845242163228
95,691.3543120111133
158,0.0499949
159,40.07823099984833
160,35.35729328309701
198,489.8241899462847
199,36.82197140595235
200,39.16586689451842
201,0.0499949
163,1763367.083806625
2,1, 1, 1, 0,18, 0.00,60.00,Sunday
7,2.9
94,19.430201810748288
95,687.7935816369047
158,0.0499949
159,39.666832854384967
160,34.969594197391248
198,644.8460657248769
199,36.08117195181455
200,39.16687456776308
201,0.0499949
163,2321445.836609557
2,1, 1, 1, 0,19, 0.00,60.00,Sunday
7,2.6
94,19.210260071367267
95,687.1553695260938
158,0.0499949
159,39.441216744416959
160,34.75819695288757
198,754.448944478047
199,35.55653847209693
200,39.16671027171641
201,0.0499949
163,2716016.200120969
2,1, 1, 1, 0,20, 0.00,60.00,Sunday
7,2.5
94,19.09972130066374
95,689.97055842896
158,0.0499949
159,39.31736926197592
160,34.61186129038201
198,831.1858836367677
199,35.18936541705024
200,39.16673705937291
201,0.0499949
163,2992269.181092364
2,1, 1, 1, 0,21, 0.00,60.00,Sunday
7,2.4
94,19.04288388515082
95,691.7471018704563
158,0.0499949
159,39.24940468168163
160,34.53393340852827
198,883.5488671040707
199,34.9387949009473
200,39.16673269176977
201,0.0499949
163,3180775.9215746547
2,1, 1, 1, 0,22, 0.00,60.00,Sunday
7,2.3
94,19.00961426080933
95,692.6652043714487
158,0.0499949
159,39.21210421843222
160,34.49206086663021
198,917.7662992475314
199,34.77505914092665
200,39.16673340389062
201,0.0499949
163,3303958.677291113
2,1, 1, 1, 0,23, 0.00,60.00,Sunday
7,2.3
94,18.984056990999716
95,693.1806201068674
158,0.0499949
159,39.19163340605494
160,34.46859484936526
198,939.5394619516154
199,34.67087058562411
200,39.16673328779014
201,0.0499949
163,3382342.0630258156
2,1, 1, 1, 0,24, 0.00,60.00,Sunday
7,2.2
94,18.956354353722568
95,693.87889766142
158,0.0499949
159,39.18039876712362
160,34.4540083982399
198,953.2413545810033
199,34.60530462192479
200,39.1667333066985
201,0.0499949
163,3431668.876491612
End of Data
 Number of Records Written=         264
