Program Version,EnergyPlus, Version 8.9.0-40101eaafd, YMD=2018.12.10 16:32
1,5,Environment Title[],Latitude[deg],Longitude[deg],Time Zone[],Elevation[m]
2,8,Day of Simulation[],Month[],Day of Month[],DST Indicator[1=yes 0=no],Hour[],StartMinute[],EndMinute[],DayType
3,5,Cumulative Day of Simulation[],Month[],Day of Month[],DST Indicator[1=yes 0=no],DayType  ! When Daily Meters Requested
4,2,Cumulative Days of Simulation[],Month[]  ! When Monthly Meters Requested
5,1,Cumulative Days of Simulation[] ! When Run Period Meters Requested
6,1,Calendar Year of Simulation[] ! When Annual Meters Requested
163,1,DistrictHeating:Facility [J] !Hourly
End of Data Dictionary
1,ANNUAL SIM 1,  59.65,  17.95,   1.00,  61.00
2,1, 1, 1, 0, 1, 0.00,60.00,Sunday
163,0.0
2,1, 1, 1, 0, 2, 0.00,60.00,Sunday
163,0.0
2,1, 1, 1, 0, 3, 0.00,60.00,Sunday
163,4013751.610872162
2,1, 1, 1, 0, 4, 0.00,60.00,Sunday
163,2907182.0430518
2,1, 1, 1, 0, 5, 0.00,60.00,Sunday
163,2845524.1071688535
2,1, 1, 1, 0, 6, 0.00,60.00,Sunday
163,3311131.668995295
2,1, 1, 1, 0, 7, 0.00,60.00,Sunday
163,3257116.6702629874
2,1, 1, 1, 0, 8, 0.00,60.00,Sunday
163,3866653.7783612257
2,1, 1, 1, 0, 9, 0.00,60.00,Sunday
163,3527605.619236034
2,1, 1, 1, 0,10, 0.00,60.00,Sunday
163,162264.41466940486
2,1, 1, 1, 0,11, 0.00,60.00,Sunday
163,670007.1869095014
2,1, 1, 1, 0,12, 0.00,60.00,Sunday
163,1094079.0327509905
2,1, 1, 1, 0,13, 0.00,60.00,Sunday
163,1136263.6147176473
2,1, 1, 1, 0,14, 0.00,60.00,Sunday
163,995761.1192550683
2,1, 1, 1, 0,15, 0.00,60.00,Sunday
163,876545.4725007557
2,1, 1, 1, 0,16, 0.00,60.00,Sunday
163,1055470.323388949
2,1, 1, 1, 0,17, 0.00,60.00,Sunday
163,1763367.083806625
2,1, 1, 1, 0,18, 0.00,60.00,Sunday
163,2321445.836609557
2,1, 1, 1, 0,19, 0.00,60.00,Sunday
163,2716016.200120969
2,1, 1, 1, 0,20, 0.00,60.00,Sunday
163,2992269.181092364
2,1, 1, 1, 0,21, 0.00,60.00,Sunday
163,3180775.9215746547
2,1, 1, 1, 0,22, 0.00,60.00,Sunday
163,3303958.677291113
2,1, 1, 1, 0,23, 0.00,60.00,Sunday
163,3382342.0630258156
2,1, 1, 1, 0,24, 0.00,60.00,Sunday
163,3431668.876491612
End of Data
 Number of Records Written=          24
