Program Version,EnergyPlus, Version 8.9.0-40101eaafd, YMD=2019.01.02 22:39
1,5,Environment Title[],Latitude[deg],Longitude[deg],Time Zone[],Elevation[m]
2,8,Day of Simulation[],Month[],Day of Month[],DST Indicator[1=yes 0=no],Hour[],StartMinute[],EndMinute[],DayType
3,5,Cumulative Day of Simulation[],Month[],Day of Month[],DST Indicator[1=yes 0=no],DayType  ! When Daily Report Variables Requested
4,2,Cumulative Days of Simulation[],Month[]  ! When Monthly Report Variables Requested
5,1,Cumulative Days of Simulation[] ! When Run Period Report Variables Requested
6,1,Calendar Year of Simulation[] ! When Annual Report Variables Requested
7,1,Environment,Site Outdoor Air Drybulb Temperature [C] !Hourly
314,1,ZONE ONE,Zone Air Temperature [C] !Hourly
315,1,ERV_1_HX,Heat Exchanger Total Heating Rate [W] !Hourly
379,1,ERV_1_FANSUPPLY,Fan Electric Power [W] !Hourly
393,1,ERV_1_FANSUPPLY,Fan Air Mass Flow Rate [kg/s] !Hourly
394,1,ERV_1_FANEXHAUST,Fan Electric Power [W] !Hourly
396,1,ERV_1_FANEXHAUST,Fan Air Mass Flow Rate [kg/s] !Hourly
397,1,RADIATOR,Baseboard Total Heating Rate [W] !Hourly
448,1,RADIATOR,Baseboard Hot Water Mass Flow Rate [kg/s] !Hourly
449,1,RADIATOR,Baseboard Water Inlet Temperature [C] !Hourly
450,1,RADIATOR,Baseboard Water Outlet Temperature [C] !Hourly
587,1,DISTRICT HEATING 1,District Heating Rate [W] !Hourly
588,1,DISTRICT HEATING 1,District Heating Inlet Temperature [C] !Hourly
589,1,DISTRICT HEATING 1,District Heating Outlet Temperature [C] !Hourly
590,1,DISTRICT HEATING 1,District Heating Mass Flow Rate [kg/s] !Hourly
120,1,DistrictHeating:Facility [J] !Hourly
End of Data Dictionary
1,ANNUAL SIM 1,  59.65,  17.95,   1.00,  61.00
2,1, 1,27, 0, 1, 0.00,60.00,Friday
7,-17.0
314,16.248964719301957
315,0.0
379,0.0
393,0.0
394,0.0
396,0.0
397,0.0
448,0.0
449,59.81990096579189
450,59.81990096579189
587,0.0
588,49.92678004911961
589,49.92678004911961
590,0.0
120,43200.0
2,1, 1,27, 0, 2, 0.00,60.00,Friday
7,-17.0
314,16.06113322502337
315,0.0
379,0.0
393,0.0
394,0.0
396,0.0
397,0.0
448,0.0
449,59.81990096579189
450,59.81990096579189
587,0.0
588,49.92678004911961
589,49.92678004911961
590,0.0
120,43200.0
2,1, 1,27, 0, 3, 0.00,60.00,Friday
7,-17.0
314,15.9960244372201
315,0.0
379,0.0
393,0.0
394,0.0
396,0.0
397,0.0
448,0.0
449,59.81990096579189
450,59.81990096579189
587,0.0
588,49.92678004911961
589,49.92678004911961
590,0.0
120,43200.0
2,1, 1,27, 0, 4, 0.00,60.00,Friday
7,-17.0
314,15.866497063235295
315,0.0
379,0.0
393,0.0
394,0.0
396,0.0
397,0.0
448,0.0
449,59.81990096579189
450,59.81990096579189
587,0.0
588,49.92678004911961
589,49.92678004911961
590,0.0
120,43200.0
2,1, 1,27, 0, 5, 0.00,60.00,Friday
7,-16.9
314,15.65167383072721
315,0.0
379,0.0
393,0.0
394,0.0
396,0.0
397,0.0
448,0.0
449,59.81990096579189
450,59.81990096579189
587,0.0
588,49.92678004911961
589,49.92678004911961
590,0.0
120,43200.0
2,1, 1,27, 0, 6, 0.00,60.00,Friday
7,-16.7
314,20.260458714602174
315,0.0
379,0.0
393,0.0
394,0.0
396,0.0
397,1396.086674167999
448,0.04999489999999999
449,59.74616121523407
450,50.322322821855419
587,2000.0
588,49.99815823866646
589,59.566207274234148
590,0.04999489999999999
120,7243200.000000001
2,1, 1,27, 0, 7, 0.00,60.00,Friday
7,-16.6
314,20.09342835767524
315,0.0
379,0.0
393,0.0
394,0.0
396,0.0
397,1118.2048710430631
448,0.049994899999999998
449,59.729158809688019
450,50.36936483918694
587,2000.0
588,50.22887103935901
589,59.79672669459423
590,0.049994899999999998
120,7401600.0
2,1, 1,27, 0, 8, 0.00,60.00,Friday
7,-15.8
314,21.277104200717344
315,0.0
379,0.0
393,0.0
394,0.0
396,0.0
397,1282.0617701455699
448,0.049994899999999998
449,59.78830117702304
450,50.559013312030277
587,2000.0
588,50.35210873904134
589,59.91985159066424
590,0.049994899999999998
120,7552800.0
2,1, 1,27, 0, 9, 0.00,60.00,Friday
7,-15.0
314,17.668566139776133
315,0.0
379,0.0
393,0.0
394,0.0
396,0.0
397,980.1747750648777
448,0.0499949
449,59.86912488220995
450,50.05286147286091
587,1997.1935964798597
588,50.40462930767292
589,59.95889875697366
590,0.0499949
120,7492296.947327495
2,1, 1,27, 0,10, 0.00,60.00,Friday
7,-14.2
314,17.50152023816056
315,0.0
379,0.0
393,0.0
394,0.0
396,0.0
397,1321.8447042443033
448,0.0499949
449,59.845186529365168
450,49.696135314361317
587,2000.0
588,50.14804878841836
589,59.7159784244017
590,0.0499949
120,7430400.0
2,1, 1,27, 0,11, 0.00,60.00,Friday
7,-13.1
314,18.2511662243342
315,0.0
379,0.0
393,0.0
394,0.0
396,0.0
397,1293.049877889312
448,0.049994899999999998
449,59.7567556917541
450,49.95335746744945
587,2000.0
588,50.0298785215811
589,59.597916327053088
590,0.049994899999999998
120,7394400.0
2,1, 1,27, 0,12, 0.00,60.00,Friday
7,-12.1
314,18.555394983751549
315,0.0
379,0.0
393,0.0
394,0.0
396,0.0
397,1243.8558386248083
448,0.0499949
449,59.688020200020108
450,50.00552352131415
587,2000.0
588,50.04386846195957
589,59.61189346133588
590,0.0499949
120,7437600.0
2,1, 1,27, 0,13, 0.00,60.00,Friday
7,-11.0
314,18.973851703672044
315,0.0
379,0.0
393,0.0
394,0.0
396,0.0
397,1248.8654903750298
448,0.0499949
449,59.65993055839404
450,50.08980539994474
587,2000.0
588,50.07304777045321
589,59.64104605982976
590,0.0499949
120,7495200.0
2,1, 1,27, 0,14, 0.00,60.00,Friday
7,-10.7
314,18.887982539659576
315,0.0
379,0.0
393,0.0
394,0.0
396,0.0
397,1233.3431295885432
448,0.0499949
449,59.66807467969397
450,50.17558089354033
587,2000.0
588,50.13676287561392
589,59.70470284227478
590,0.0499949
120,7452000.0
2,1, 1,27, 0,15, 0.00,60.00,Friday
7,-10.5
314,18.73415918163002
315,0.0
379,0.0
393,0.0
394,0.0
396,0.0
397,1230.4577162849866
448,0.0499949
449,59.69520557426692
450,50.17445055190548
587,2000.0
588,50.18348927517898
589,59.75138647048965
590,0.0499949
120,7444800.0
2,1, 1,27, 0,16, 0.00,60.00,Friday
7,-10.2
314,18.667590364729049
315,0.0
379,0.0
393,0.0
394,0.0
396,0.0
397,1236.1369755357512
448,0.0499949
449,59.725754313007588
450,50.167876414788349
587,2000.0
588,50.207273439769469
589,59.7751488642187
590,0.0499949
120,7408800.0
2,1, 1,27, 0,17, 0.00,60.00,Friday
7,-9.8
314,18.7291230862199
315,0.0
379,0.0
393,0.0
394,0.0
396,0.0
397,1238.8144292844809
448,0.0499949
449,59.75090673564144
450,50.173176156846867
587,2000.0
588,50.22030542254027
589,59.788168918191647
590,0.0499949
120,7430400.0
2,1, 1,27, 0,18, 0.00,60.00,Friday
7,-9.4
314,19.21384756674534
315,0.0
379,0.0
393,0.0
394,0.0
396,0.0
397,1243.645694433818
448,0.0499949
449,59.77218036019671
450,50.23850133106778
587,2000.0
588,50.24037746165172
589,59.80822258447103
590,0.0499949
120,7560000.0
2,1, 1,27, 0,19, 0.00,60.00,Friday
7,-9.0
314,21.679347646171487
315,0.0
379,0.0
393,0.0
394,0.0
396,0.0
397,1100.6204094273605
448,0.03961509947265625
449,59.80920753361333
450,50.32110818165481
587,1594.399453377925
588,50.30904331119652
589,59.94575980164298
590,0.03961509947265625
120,6092638.03216053
2,1, 1,27, 0,20, 0.00,60.00,Friday
7,-8.0
314,21.70950469060697
315,0.0
379,0.0
393,0.0
394,0.0
396,0.0
397,1152.757529756915
448,0.0499949
449,59.87800660381994
450,50.91957895295815
587,1986.7498812636084
588,50.484760690755937
589,59.98899651623842
590,0.0499949
120,7440299.57254899
2,1, 1,27, 0,21, 0.00,60.00,Friday
7,-7.1
314,19.051159984103657
315,0.0
379,0.0
393,0.0
394,0.0
396,0.0
397,0.0
448,0.0
449,59.9095268812541
450,59.9095268812541
587,0.0
588,50.619622354274159
589,50.619622354274159
590,0.0
120,259200.0
2,1, 1,27, 0,22, 0.00,60.00,Friday
7,-6.1
314,18.41689629155177
315,0.0
379,0.0
393,0.0
394,0.0
396,0.0
397,0.0
448,0.0
449,59.909526881254119
450,59.909526881254119
587,0.0
588,50.619622354274159
589,50.619622354274159
590,0.0
120,324000.0
2,1, 1,27, 0,23, 0.00,60.00,Friday
7,-5.7
314,17.864028211795796
315,0.0
379,0.0
393,0.0
394,0.0
396,0.0
397,0.0
448,0.0
449,59.909526881254119
450,59.909526881254119
587,0.0
588,50.619622354274159
589,50.619622354274159
590,0.0
120,216000.0
2,1, 1,27, 0,24, 0.00,60.00,Friday
7,-5.4
314,17.387079081749186
315,0.0
379,0.0
393,0.0
394,0.0
396,0.0
397,0.0
448,0.0
449,59.909526881254119
450,59.909526881254119
587,0.0
588,50.619622354274159
589,50.619622354274159
590,0.0
120,57600.0
End of Data
 Number of Records Written=         384
