Program Version,EnergyPlus, Version 8.9.0-40101eaafd, YMD=2019.01.07 11:27
1,5,Environment Title[],Latitude[deg],Longitude[deg],Time Zone[],Elevation[m]
2,8,Day of Simulation[],Month[],Day of Month[],DST Indicator[1=yes 0=no],Hour[],StartMinute[],EndMinute[],DayType
3,5,Cumulative Day of Simulation[],Month[],Day of Month[],DST Indicator[1=yes 0=no],DayType  ! When Daily Report Variables Requested
4,2,Cumulative Days of Simulation[],Month[]  ! When Monthly Report Variables Requested
5,1,Cumulative Days of Simulation[] ! When Run Period Report Variables Requested
6,1,Calendar Year of Simulation[] ! When Annual Report Variables Requested
7,1,Environment,Site Outdoor Air Drybulb Temperature [C] !Hourly
314,1,ZONE ONE,Zone Air Temperature [C] !Hourly
315,1,ERV_1_HX,Heat Exchanger Total Heating Rate [W] !Hourly
379,1,ERV_1_FANSUPPLY,Fan Electric Power [W] !Hourly
393,1,ERV_1_FANSUPPLY,Fan Air Mass Flow Rate [kg/s] !Hourly
394,1,ERV_1_FANEXHAUST,Fan Electric Power [W] !Hourly
396,1,ERV_1_FANEXHAUST,Fan Air Mass Flow Rate [kg/s] !Hourly
397,1,RADIATOR,Baseboard Total Heating Rate [W] !Hourly
448,1,RADIATOR,Baseboard Hot Water Mass Flow Rate [kg/s] !Hourly
449,1,RADIATOR,Baseboard Water Inlet Temperature [C] !Hourly
450,1,RADIATOR,Baseboard Water Outlet Temperature [C] !Hourly
587,1,DISTRICT HEATING 1,District Heating Rate [W] !Hourly
588,1,DISTRICT HEATING 1,District Heating Inlet Temperature [C] !Hourly
589,1,DISTRICT HEATING 1,District Heating Outlet Temperature [C] !Hourly
590,1,DISTRICT HEATING 1,District Heating Mass Flow Rate [kg/s] !Hourly
120,1,DistrictHeating:Facility [J] !Hourly
End of Data Dictionary
1,ANNUAL SIM 1,  59.65,  17.95,   1.00,  61.00
2,1, 1, 1, 0, 1, 0.00,60.00,Sunday
7,4.0
314,18.166014435752378
315,0.0
379,0.0
393,0.0
394,0.0
396,0.0
397,0.0
448,0.0
449,59.99936038375889
450,59.99936038375889
587,0.0
588,49.79344392301866
589,49.79344392301866
590,0.0
120,43200.0
2,1, 1, 1, 0, 2, 0.00,60.00,Sunday
7,5.3
314,18.078391099165278
315,0.0
379,0.0
393,0.0
394,0.0
396,0.0
397,0.0
448,0.0
449,59.99936038375889
450,59.99936038375889
587,0.0
588,49.79344392301866
589,49.79344392301866
590,0.0
120,43200.0
2,1, 1, 1, 0, 3, 0.00,60.00,Sunday
7,6.2
314,18.063294172478906
315,0.0
379,0.0
393,0.0
394,0.0
396,0.0
397,0.0
448,0.0
449,59.99936038375889
450,59.99936038375889
587,0.0
588,49.79344392301866
589,49.79344392301866
590,0.0
120,43200.0
2,1, 1, 1, 0, 4, 0.00,60.00,Sunday
7,6.8
314,18.0367394065506
315,0.0
379,0.0
393,0.0
394,0.0
396,0.0
397,0.0
448,0.0
449,59.99936038375889
450,59.99936038375889
587,0.0
588,49.79344392301866
589,49.79344392301866
590,0.0
120,43200.0
2,1, 1, 1, 0, 5, 0.00,60.00,Sunday
7,7.2
314,17.995928326558013
315,0.0
379,0.0
393,0.0
394,0.0
396,0.0
397,0.0
448,0.0
449,59.99936038375889
450,59.99936038375889
587,0.0
588,49.79344392301866
589,49.79344392301866
590,0.0
120,43200.0
2,1, 1, 1, 0, 6, 0.00,60.00,Sunday
7,7.5
314,21.91444302720087
315,0.0
379,0.0
393,0.0
394,0.0
396,0.0
397,882.9398414488436
448,0.03090644543526785
449,59.93982462397543
450,51.54147639838951
587,1281.0741193554838
588,49.884062930666697
589,58.42513306186516
590,0.03090644543526785
120,4655066.829679743
2,1, 1, 1, 0, 7, 0.00,60.00,Sunday
7,7.5
314,22.127891325657634
315,0.0
379,0.0
393,0.0
394,0.0
396,0.0
397,789.1041001512305
448,0.029996940000000004
449,59.95125049094776
450,50.14250831030462
587,1257.4374063364316
588,49.9739516462735
589,60.00000000000001
590,0.029996940000000004
120,4591574.662811154
2,1, 1, 1, 0, 8, 0.00,60.00,Sunday
7,6.7
314,21.872694420543824
315,0.0
379,0.0
393,0.0
394,0.0
396,0.0
397,791.944449991869
448,0.029996940000000004
449,59.96598862162667
450,50.01296245910394
587,1251.1754361367125
588,50.02391608081157
589,59.99999999999999
590,0.029996940000000004
120,4684231.570092165
2,1, 1, 1, 0, 9, 0.00,60.00,Sunday
7,6.0
314,21.66239302068464
315,0.0
379,0.0
393,0.0
394,0.0
396,0.0
397,795.7946847334641
448,0.029996940000000004
449,59.97627106649188
450,49.95745729850897
587,1250.2286078002203
588,50.031472699598669
589,60.0
590,0.029996940000000004
120,4767222.988080793
2,1, 1, 1, 0,10, 0.00,60.00,Sunday
7,5.2
314,19.52031206043415
315,0.0
379,0.0
393,0.0
394,0.0
396,0.0
397,0.0
448,0.0
449,59.980286553887427
450,59.980286553887427
587,0.0
588,50.03000850351684
589,50.03000850351684
590,0.0
120,252000.0
2,1, 1, 1, 0,11, 0.00,60.00,Sunday
7,5.2
314,19.1151531131016
315,0.0
379,0.0
393,0.0
394,0.0
396,0.0
397,408.032697652405
448,0.014998470000000002
449,59.98154692237212
450,54.60161593849823
587,629.2277871176677
588,49.98132171973497
589,54.998406996837179
590,0.014998470000000002
120,2495620.0336236038
2,1, 1, 1, 0,12, 0.00,60.00,Sunday
7,5.2
314,19.5305610300785
315,0.0
379,0.0
393,0.0
394,0.0
396,0.0
397,537.3290807384444
448,0.019997960000000003
449,59.985222025590079
450,52.90572018911432
587,848.4281250483473
588,49.85654948651433
589,56.621443509522489
590,0.019997960000000003
120,3306341.25017405
2,1, 1, 1, 0,13, 0.00,60.00,Sunday
7,5.2
314,20.649421910664065
315,0.0
379,0.0
393,0.0
394,0.0
396,0.0
397,813.0403132734618
448,0.029996940000000004
449,59.98912251423801
450,49.66552443422369
587,1281.484846116056
588,49.78211808171354
589,60.0
590,0.029996940000000004
120,4915745.446017802
2,1, 1, 1, 0,14, 0.00,60.00,Sunday
7,4.6
314,20.993505752972518
315,0.0
379,0.0
393,0.0
394,0.0
396,0.0
397,946.4584565916743
448,0.037378999453125009
449,59.99279532468979
450,50.16762131152252
587,1580.199760670996
588,49.89242128865787
589,60.0
590,0.037378999453125009
120,5955119.138415586
2,1, 1, 1, 0,15, 0.00,60.00,Sunday
7,4.1
314,20.398531712246134
315,0.0
379,0.0
393,0.0
394,0.0
396,0.0
397,766.5686662602814
448,0.029996940000000004
449,59.99515425317617
450,49.834172793079137
587,1261.1732199989847
588,49.94415018259708
589,60.0
590,0.029996940000000004
120,4799423.591996346
2,1, 1, 1, 0,16, 0.00,60.00,Sunday
7,3.5
314,20.261380709434609
315,0.0
379,0.0
393,0.0
394,0.0
396,0.0
397,799.8353095762571
448,0.029996940000000004
449,59.99661923715888
450,49.73759402681405
587,1265.2608081288442
588,49.91154243563186
589,60.0
590,0.029996940000000004
120,4778138.909263839
2,1, 1, 1, 0,17, 0.00,60.00,Sunday
7,3.2
314,18.95551558499904
315,0.0
379,0.0
393,0.0
394,0.0
396,0.0
397,0.0
448,0.0
449,59.99719134085546
450,59.99719134085546
587,0.0
588,49.893166723675978
589,49.893166723675978
590,0.0
120,230400.0
2,1, 1, 1, 0,18, 0.00,60.00,Sunday
7,2.9
314,18.809488802147376
315,0.0
379,0.0
393,0.0
394,0.0
396,0.0
397,0.0
448,0.0
449,59.99719134085546
450,59.99719134085546
587,0.0
588,49.893166723675978
589,49.893166723675978
590,0.0
120,324000.0
2,1, 1, 1, 0,19, 0.00,60.00,Sunday
7,2.6
314,19.549561782052256
315,0.0
379,0.0
393,0.0
394,0.0
396,0.0
397,152.05140905564708
448,0.00545398909090909
449,59.997305553660257
450,58.057063792452797
587,230.83470447771527
588,49.87263851687247
589,51.713183923935648
590,0.00545398909090909
120,1133404.936119775
2,1, 1, 1, 0,20, 0.00,60.00,Sunday
7,2.5
314,20.465028563468228
315,0.0
379,0.0
393,0.0
394,0.0
396,0.0
397,371.4340558411642
448,0.013331973333333334
449,59.99758054799539
450,55.36786705146425
587,566.086760688059
588,49.843482857012627
589,54.35714565994178
590,0.013331973333333334
120,2289912.3384770129
2,1, 1, 1, 0,21, 0.00,60.00,Sunday
7,2.4
314,19.275627096017624
315,0.0
379,0.0
393,0.0
394,0.0
396,0.0
397,0.0
448,0.0
449,59.99775825932477
450,59.99775825932477
587,0.0
588,49.82966621259775
589,49.82966621259775
590,0.0
120,216000.0
2,1, 1, 1, 0,22, 0.00,60.00,Sunday
7,2.3
314,19.026409569161758
315,0.0
379,0.0
393,0.0
394,0.0
396,0.0
397,0.0
448,0.0
449,59.99775825932477
450,59.99775825932477
587,0.0
588,49.82966621259775
589,49.82966621259775
590,0.0
120,244800.0
2,1, 1, 1, 0,23, 0.00,60.00,Sunday
7,2.3
314,18.63964202840299
315,0.0
379,0.0
393,0.0
394,0.0
396,0.0
397,0.0
448,0.0
449,59.99775825932477
450,59.99775825932477
587,0.0
588,49.82966621259775
589,49.82966621259775
590,0.0
120,187200.0
2,1, 1, 1, 0,24, 0.00,60.00,Sunday
7,2.2
314,18.380236884310376
315,0.0
379,0.0
393,0.0
394,0.0
396,0.0
397,0.0
448,0.0
449,59.99775825932477
450,59.99775825932477
587,0.0
588,49.82966621259775
589,49.82966621259775
590,0.0
120,86400.0
2,2, 1, 2, 0, 1, 0.00,60.00,Monday
7,2.2
314,17.86754291874194
315,0.0
379,0.0
393,0.0
394,0.0
396,0.0
397,0.0
448,0.0
449,59.99775825932477
450,59.99775825932477
587,0.0
588,49.82966621259775
589,49.82966621259775
590,0.0
120,43200.0
2,2, 1, 2, 0, 2, 0.00,60.00,Monday
7,2.2
314,17.705091143774078
315,0.0
379,0.0
393,0.0
394,0.0
396,0.0
397,0.0
448,0.0
449,59.99775825932477
450,59.99775825932477
587,0.0
588,49.82966621259775
589,49.82966621259775
590,0.0
120,43200.0
2,2, 1, 2, 0, 3, 0.00,60.00,Monday
7,2.1
314,17.61146119595946
315,0.0
379,0.0
393,0.0
394,0.0
396,0.0
397,0.0
448,0.0
449,59.99775825932477
450,59.99775825932477
587,0.0
588,49.82966621259775
589,49.82966621259775
590,0.0
120,43200.0
2,2, 1, 2, 0, 4, 0.00,60.00,Monday
7,2.1
314,17.54165780375449
315,0.0
379,0.0
393,0.0
394,0.0
396,0.0
397,0.0
448,0.0
449,59.99775825932477
450,59.99775825932477
587,0.0
588,49.82966621259775
589,49.82966621259775
590,0.0
120,43200.0
2,2, 1, 2, 0, 5, 0.00,60.00,Monday
7,2.1
314,17.459150412367089
315,0.0
379,0.0
393,0.0
394,0.0
396,0.0
397,0.0
448,0.0
449,59.99775825932477
450,59.99775825932477
587,0.0
588,49.82966621259775
589,49.82966621259775
590,0.0
120,43200.0
2,2, 1, 2, 0, 6, 0.00,60.00,Monday
7,2.0
314,21.614035991586648
315,0.0
379,0.0
393,0.0
394,0.0
396,0.0
397,1030.1437574347456
448,0.03532972933333334
449,59.93192528462215
450,50.08482328433852
587,1459.3101750350602
588,49.91266236379335
589,59.84735987068772
590,0.03532972933333334
120,5296716.6301262159
2,2, 1, 2, 0, 7, 0.00,60.00,Monday
7,2.0
314,21.90669606258578
315,0.0
379,0.0
393,0.0
394,0.0
396,0.0
397,1062.1700875289384
448,0.044448590781250008
449,59.88456441805606
450,50.56711217102059
587,1795.928462267042
588,50.14544641687544
589,59.82283463599427
590,0.044448590781250008
120,6666942.464161351
2,2, 1, 2, 0, 8, 0.00,60.00,Monday
7,2.0
314,20.197298350033245
315,0.0
379,0.0
393,0.0
394,0.0
396,0.0
397,331.4757136901245
448,0.014998470000000002
449,59.893101789148847
450,54.67837818424897
587,616.3489693560958
588,50.20093620088319
589,55.11524487214814
590,0.014998470000000002
120,2571656.289681945
2,2, 1, 2, 0, 9, 0.00,60.00,Monday
7,1.9
314,18.407984518985168
315,0.0
379,0.0
393,0.0
394,0.0
396,0.0
397,361.82671386910729
448,0.014998470000000002
449,59.91071110882288
450,54.47996911695793
587,625.1362569696489
588,50.07341959196428
589,55.05785844907082
590,0.014998470000000002
120,2552890.525090736
2,2, 1, 2, 0,10, 0.00,60.00,Monday
7,1.9
314,19.830156102278076
315,0.0
379,0.0
393,0.0
394,0.0
396,0.0
397,857.0301243246827
448,0.029996940000000004
449,59.93459397340561
450,49.36200030522099
587,1272.709862176262
588,49.85211905762978
589,60.0
590,0.029996940000000004
120,4812155.503834543
2,2, 1, 2, 0,11, 0.00,60.00,Monday
7,1.9
314,20.09005587073027
315,0.0
379,0.0
393,0.0
394,0.0
396,0.0
397,814.9982631602631
448,0.030075057031250006
449,59.95438786704059
450,49.64979839750994
587,1284.44109632352
588,49.785149169041158
589,60.00000000000001
590,0.030075057031250006
120,4818387.946764672
2,2, 1, 2, 0,12, 0.00,60.00,Monday
7,1.9
314,20.081385703413749
315,0.0
379,0.0
393,0.0
394,0.0
396,0.0
397,824.0075836394566
448,0.030543759218750009
449,59.9682947004236
450,49.64299062490189
587,1307.3230761990396
588,49.76270538307502
589,60.0
590,0.030543759218750009
120,4943963.074316543
2,2, 1, 2, 0,13, 0.00,60.00,Monday
7,1.9
314,20.094683189651176
315,0.0
379,0.0
393,0.0
394,0.0
396,0.0
397,808.8143092150978
448,0.029996940000000004
449,59.97795436983094
450,49.6528079919239
587,1285.7977353998842
588,49.747712514624307
589,59.99999999999999
590,0.029996940000000004
120,4924071.847439583
2,2, 1, 2, 0,14, 0.00,60.00,Monday
7,1.6
314,20.083658646169039
315,0.0
379,0.0
393,0.0
394,0.0
396,0.0
397,858.1027499840776
448,0.03226233390625
449,59.98481496670926
450,49.785533327231849
587,1381.084620381447
588,49.761194315038839
589,60.00000000000001
590,0.03226233390625
120,5223904.633373209
2,2, 1, 2, 0,15, 0.00,60.00,Monday
7,1.3
314,20.085075098319739
315,0.0
379,0.0
393,0.0
394,0.0
396,0.0
397,889.6367021399416
448,0.0337465575
449,59.98977421540972
450,49.86845529638193
587,1438.4109182780217
588,49.80523139706718
589,60.0
590,0.0337465575
120,5423079.3058008779
2,2, 1, 2, 0,16, 0.00,60.00,Monday
7,1.0
314,20.08755154699274
315,0.0
379,0.0
393,0.0
394,0.0
396,0.0
397,916.6918461458937
448,0.03499643
449,59.99322970307494
450,49.93764892345624
587,1483.4792894916557
588,49.86134239636007
589,60.00000000000001
590,0.03499643
120,5549325.442169961
2,2, 1, 2, 0,17, 0.00,60.00,Monday
7,0.9
314,20.08416237006935
315,0.0
379,0.0
393,0.0
394,0.0
396,0.0
397,908.7061920550004
448,0.034683961875
449,59.99554310182166
450,49.92889604420334
587,1463.4464147719382
588,49.908171418852258
589,60.0
590,0.034683961875
120,5498807.093178977
2,2, 1, 2, 0,18, 0.00,60.00,Monday
7,0.7
314,20.110361687757668
315,0.0
379,0.0
393,0.0
394,0.0
396,0.0
397,802.4500530799211
448,0.029996940000000004
449,59.99698175087304
450,49.717562470875169
587,1266.4432113375735
588,49.902110080424609
589,60.0
590,0.029996940000000004
120,4919195.5608152649
2,2, 1, 2, 0,19, 0.00,60.00,Monday
7,0.6
314,20.630511650260588
315,0.0
379,0.0
393,0.0
394,0.0
396,0.0
397,487.0759634032345
448,0.017998164000000005
449,59.997745996392229
450,53.83090098661769
587,762.1179107732912
588,49.87211931190804
589,55.94881799287938
590,0.017998164000000005
120,3096424.478783848
2,2, 1, 2, 0,20, 0.00,60.00,Monday
7,0.6
314,20.59624913084913
315,0.0
379,0.0
393,0.0
394,0.0
396,0.0
397,393.1644424251016
448,0.014998470000000002
449,59.998192001314468
450,54.879624826077037
587,635.7504635500129
588,49.86097890974678
589,54.93009731166458
590,0.014998470000000002
120,2576701.6687800467
2,2, 1, 2, 0,21, 0.00,60.00,Monday
7,0.6
314,19.142773983041964
315,0.0
379,0.0
393,0.0
394,0.0
396,0.0
397,0.0
448,0.0
449,59.99831244164483
450,59.99831244164483
587,0.0
588,49.8567485888374
589,49.8567485888374
590,0.0
120,259200.0
2,2, 1, 2, 0,22, 0.00,60.00,Monday
7,0.6
314,18.933508699649797
315,0.0
379,0.0
393,0.0
394,0.0
396,0.0
397,0.0
448,0.0
449,59.99831244164482
450,59.99831244164482
587,0.0
588,49.85674858883739
589,49.85674858883739
590,0.0
120,324000.0
2,2, 1, 2, 0,23, 0.00,60.00,Monday
7,0.8
314,18.51275351534847
315,0.0
379,0.0
393,0.0
394,0.0
396,0.0
397,0.0
448,0.0
449,59.99831244164482
450,59.99831244164482
587,0.0
588,49.85674858883739
589,49.85674858883739
590,0.0
120,216000.0
2,2, 1, 2, 0,24, 0.00,60.00,Monday
7,0.9
314,18.24268212741422
315,0.0
379,0.0
393,0.0
394,0.0
396,0.0
397,0.0
448,0.0
449,59.99831244164482
450,59.99831244164482
587,0.0
588,49.85674858883739
589,49.85674858883739
590,0.0
120,57600.0
2,3, 1, 3, 0, 1, 0.00,60.00,Tuesday
7,1.1
314,17.748530224968719
315,0.0
379,0.0
393,0.0
394,0.0
396,0.0
397,0.0
448,0.0
449,59.99831244164482
450,59.99831244164482
587,0.0
588,49.85674858883739
589,49.85674858883739
590,0.0
120,43200.0
2,3, 1, 3, 0, 2, 0.00,60.00,Tuesday
7,0.9
314,17.59764325881616
315,0.0
379,0.0
393,0.0
394,0.0
396,0.0
397,0.0
448,0.0
449,59.99831244164482
450,59.99831244164482
587,0.0
588,49.85674858883739
589,49.85674858883739
590,0.0
120,43200.0
2,3, 1, 3, 0, 3, 0.00,60.00,Tuesday
7,0.6
314,17.52250113115724
315,0.0
379,0.0
393,0.0
394,0.0
396,0.0
397,0.0
448,0.0
449,59.99831244164482
450,59.99831244164482
587,0.0
588,49.85674858883739
589,49.85674858883739
590,0.0
120,43200.0
2,3, 1, 3, 0, 4, 0.00,60.00,Tuesday
7,0.4
314,17.407209475513825
315,0.0
379,0.0
393,0.0
394,0.0
396,0.0
397,0.0
448,0.0
449,59.99831244164482
450,59.99831244164482
587,0.0
588,49.85674858883739
589,49.85674858883739
590,0.0
120,43200.0
2,3, 1, 3, 0, 5, 0.00,60.00,Tuesday
7,0.6
314,17.32543544686146
315,0.0
379,0.0
393,0.0
394,0.0
396,0.0
397,0.0
448,0.0
449,59.99831244164482
450,59.99831244164482
587,0.0
588,49.85674858883739
589,49.85674858883739
590,0.0
120,43200.0
2,3, 1, 3, 0, 6, 0.00,60.00,Tuesday
7,0.9
314,21.49600233296022
315,0.0
379,0.0
393,0.0
394,0.0
396,0.0
397,1050.678280161636
448,0.035902587562500008
449,59.93519164161849
450,50.084470003114748
587,1481.7436461634975
588,49.931815064697058
589,59.853456455803357
590,0.035902587562500008
120,5377477.126188591
2,3, 1, 3, 0, 7, 0.00,60.00,Tuesday
7,1.1
314,21.88502175280304
315,0.0
379,0.0
393,0.0
394,0.0
396,0.0
397,1117.4697137018027
448,0.046766062708333337
449,59.90169370141389
450,50.68990772157628
587,1898.0074239676983
588,50.161081808451807
589,59.873341849417979
590,0.046766062708333337
120,7034426.726283714
2,3, 1, 3, 0, 8, 0.00,60.00,Tuesday
7,0.9
314,22.11925713136949
315,0.0
379,0.0
393,0.0
394,0.0
396,0.0
397,1036.2679062161096
448,0.041558260625
449,59.93394064360731
450,50.529200154904049
587,1673.9761100062794
588,50.366224763295338
589,60.0
590,0.041558260625
120,6379113.996022606
2,3, 1, 3, 0, 9, 0.00,60.00,Tuesday
7,0.8
314,19.983367886762609
315,0.0
379,0.0
393,0.0
394,0.0
396,0.0
397,852.2840531062201
448,0.039839685937499997
449,59.95791563442407
450,51.71230340507067
587,1594.6018670964381
588,50.42498492561903
589,58.630496528919497
590,0.039839685937499997
120,6042966.721547178
2,3, 1, 3, 0,10, 0.00,60.00,Tuesday
7,0.6
314,18.087297996303563
315,0.0
379,0.0
393,0.0
394,0.0
396,0.0
397,368.5645774327423
448,0.014998470000000002
449,59.969482864423749
450,54.49930504308742
587,608.3014085270082
588,50.35563621047247
589,55.20572001062328
590,0.014998470000000002
120,2420285.07069723
2,3, 1, 3, 0,11, 0.00,60.00,Tuesday
7,1.1
314,19.702226521882797
315,0.0
379,0.0
393,0.0
394,0.0
396,0.0
397,863.904920355587
448,0.029996940000000004
449,59.97764554408985
450,49.35871175562427
587,1247.3358099548
588,50.05456176842257
589,60.0
590,0.029996940000000004
120,4684808.91583728
2,3, 1, 3, 0,12, 0.00,60.00,Tuesday
7,1.6
314,20.01096733248829
315,0.0
379,0.0
393,0.0
394,0.0
396,0.0
397,849.4343829638714
448,0.032184216875000008
449,59.98469618024734
450,49.64532575570979
587,1355.01459113003
588,49.9287523386387
589,60.0
590,0.032184216875000008
120,5115652.5280681089
2,3, 1, 3, 0,13, 0.00,60.00,Tuesday
7,2.1
314,20.119264153781047
315,0.0
379,0.0
393,0.0
394,0.0
396,0.0
397,811.441721090588
448,0.029996940000000004
449,59.98940083026917
450,49.62703273253166
587,1272.4809130238398
588,49.85394554272444
589,60.00000000000001
590,0.029996940000000004
120,4876131.286885823
2,3, 1, 3, 0,14, 0.00,60.00,Tuesday
7,1.7
314,20.082495319150874
315,0.0
379,0.0
393,0.0
394,0.0
396,0.0
397,836.8068469306544
448,0.031168695468750009
449,59.99265306313421
450,49.703320265644908
587,1326.9986835561133
588,49.817005706422637
589,59.99999999999999
590,0.031168695468750009
120,5029195.260802008
2,3, 1, 3, 0,15, 0.00,60.00,Tuesday
7,1.4
314,20.082128142759588
315,0.0
379,0.0
393,0.0
394,0.0
396,0.0
397,869.0530078974331
448,0.03265291906250001
449,59.9949899631662
450,49.78013362830407
587,1390.474908383408
588,49.81491114693016
589,60.00000000000001
590,0.03265291906250001
120,5250509.6701802699
2,3, 1, 3, 0,16, 0.00,60.00,Tuesday
7,1.0
314,20.082281811528554
315,0.0
379,0.0
393,0.0
394,0.0
396,0.0
397,888.4584517797126
448,0.0335903234375
449,59.99663090694608
450,49.837369719581989
587,1427.5638584267167
588,49.835064722906427
589,60.0
590,0.0335903234375
120,5348029.89033618
2,3, 1, 3, 0,17, 0.00,60.00,Tuesday
7,1.0
314,20.07972402991904
315,0.0
379,0.0
393,0.0
394,0.0
396,0.0
397,874.9131800066701
448,0.033043504218750009
449,59.99774251043494
450,49.82099990992067
587,1401.6381256426575
588,49.85451858856068
589,60.00000000000001
590,0.033043504218750009
120,5276297.252313567
2,3, 1, 3, 0,18, 0.00,60.00,Tuesday
7,1.0
314,20.24345934678261
315,0.0
379,0.0
393,0.0
394,0.0
396,0.0
397,804.6580829259827
448,0.029996940000000004
449,59.99845480414274
450,49.6870696532621
587,1273.8386202593565
588,49.84311467870291
589,60.0
590,0.029996940000000004
120,4945819.032933683
2,3, 1, 3, 0,19, 0.00,60.00,Tuesday
7,1.0
314,20.757873379595343
315,0.0
379,0.0
393,0.0
394,0.0
396,0.0
397,487.56424032535576
448,0.017998164000000005
449,59.998846060450798
450,53.833306200938398
587,765.7519019282367
588,49.82384704125262
589,55.92953523060352
590,0.017998164000000005
120,3109506.8469416524
2,3, 1, 3, 0,20, 0.00,60.00,Tuesday
7,1.0
314,20.385464612878697
315,0.0
379,0.0
393,0.0
394,0.0
396,0.0
397,379.0292452178474
448,0.014998470000000002
449,59.99903179679405
450,54.80507068596288
587,639.1252147264348
588,49.81092175714678
589,54.90696166252479
590,0.014998470000000002
120,2588850.7730151659
2,3, 1, 3, 0,21, 0.00,60.00,Tuesday
7,1.0
314,19.506084781557904
315,0.0
379,0.0
393,0.0
394,0.0
396,0.0
397,0.0
448,0.0
449,59.99913605270155
450,59.99913605270155
587,0.0
588,49.796431875522319
589,49.796431875522319
590,0.0
120,259200.0
2,3, 1, 3, 0,22, 0.00,60.00,Tuesday
7,1.0
314,19.249888731417145
315,0.0
379,0.0
393,0.0
394,0.0
396,0.0
397,0.0
448,0.0
449,59.99913605270155
450,59.99913605270155
587,0.0
588,49.796431875522319
589,49.796431875522319
590,0.0
120,324000.0
2,3, 1, 3, 0,23, 0.00,60.00,Tuesday
7,1.4
314,18.76584641061747
315,0.0
379,0.0
393,0.0
394,0.0
396,0.0
397,0.0
448,0.0
449,59.99913605270155
450,59.99913605270155
587,0.0
588,49.796431875522319
589,49.796431875522319
590,0.0
120,216000.0
2,3, 1, 3, 0,24, 0.00,60.00,Tuesday
7,1.7
314,18.495822765653509
315,0.0
379,0.0
393,0.0
394,0.0
396,0.0
397,0.0
448,0.0
449,59.99913605270155
450,59.99913605270155
587,0.0
588,49.796431875522319
589,49.796431875522319
590,0.0
120,57600.0
2,4, 1, 4, 0, 1, 0.00,60.00,Wednesday
7,2.1
314,17.992056318024244
315,0.0
379,0.0
393,0.0
394,0.0
396,0.0
397,0.0
448,0.0
449,59.99913605270155
450,59.99913605270155
587,0.0
588,49.796431875522319
589,49.796431875522319
590,0.0
120,43200.0
2,4, 1, 4, 0, 2, 0.00,60.00,Wednesday
7,1.4
314,17.802500385652765
315,0.0
379,0.0
393,0.0
394,0.0
396,0.0
397,0.0
448,0.0
449,59.99913605270155
450,59.99913605270155
587,0.0
588,49.796431875522319
589,49.796431875522319
590,0.0
120,43200.0
2,4, 1, 4, 0, 3, 0.00,60.00,Wednesday
7,0.8
314,17.707406502979614
315,0.0
379,0.0
393,0.0
394,0.0
396,0.0
397,0.0
448,0.0
449,59.99913605270155
450,59.99913605270155
587,0.0
588,49.796431875522319
589,49.796431875522319
590,0.0
120,43200.0
2,4, 1, 4, 0, 4, 0.00,60.00,Wednesday
7,0.1
314,17.596137986547374
315,0.0
379,0.0
393,0.0
394,0.0
396,0.0
397,0.0
448,0.0
449,59.99913605270155
450,59.99913605270155
587,0.0
588,49.796431875522319
589,49.796431875522319
590,0.0
120,43200.0
2,4, 1, 4, 0, 5, 0.00,60.00,Wednesday
7,-0.3
314,17.4779362915238
315,0.0
379,0.0
393,0.0
394,0.0
396,0.0
397,0.0
448,0.0
449,59.99913605270155
450,59.99913605270155
587,0.0
588,49.796431875522319
589,49.796431875522319
590,0.0
120,43200.0
2,4, 1, 4, 0, 6, 0.00,60.00,Wednesday
7,-0.7
314,21.575431990290768
315,0.0
379,0.0
393,0.0
394,0.0
396,0.0
397,1032.338861987178
448,0.03532972933333334
449,59.92947965213306
450,50.07236361951343
587,1461.7688893152672
588,49.88489133338974
589,59.83920639143989
590,0.03532972933333334
120,5305568.001534962
2,4, 1, 4, 0, 7, 0.00,60.00,Wednesday
7,-1.1
314,21.88902573122816
315,0.0
379,0.0
393,0.0
394,0.0
396,0.0
397,1077.875642389546
448,0.045034468515625
449,59.87842592096307
450,50.5805424319836
587,1821.1754604129837
588,50.1257110701013
589,59.81071660989254
590,0.045034468515625
120,6757831.6574867409
2,4, 1, 4, 0, 8, 0.00,60.00,Wednesday
7,-1.4
314,22.12034121090158
315,0.0
379,0.0
393,0.0
394,0.0
396,0.0
397,1039.2225880635701
448,0.041714494687500009
449,59.907771433627797
450,50.504475011914497
587,1692.428232326132
588,50.29644683216947
589,60.0
590,0.041714494687500009
120,6445541.636374075
2,4, 1, 4, 0, 9, 0.00,60.00,Wednesday
7,-1.8
314,19.873492258411898
315,0.0
379,0.0
393,0.0
394,0.0
396,0.0
397,899.4832372238362
448,0.042696537366071419
449,59.93347292094805
450,51.816951409034917
587,1708.2961202798747
588,50.389822585704887
589,58.591985036544098
590,0.042696537366071419
120,6452266.033007551
2,4, 1, 4, 0,10, 0.00,60.00,Wednesday
7,-2.1
314,20.106124588919884
315,0.0
379,0.0
393,0.0
394,0.0
396,0.0
397,1152.846179298007
448,0.0460890484375
449,59.95713045970232
450,50.35616860228713
587,1844.78401258318
588,50.42695991432743
589,60.0
590,0.0460890484375
120,6871622.4452994479
2,4, 1, 4, 0,11, 0.00,60.00,Wednesday
7,-2.4
314,20.091593077059686
315,0.0
379,0.0
393,0.0
394,0.0
396,0.0
397,912.3999413821107
448,0.034527727812500009
449,59.973710904172047
450,49.84838717527917
587,1395.6056676011026
588,50.33279940923514
589,60.0
590,0.034527727812500009
120,5218580.403363969
2,4, 1, 4, 0,12, 0.00,60.00,Wednesday
7,-2.6
314,19.677877459947788
315,0.0
379,0.0
393,0.0
394,0.0
396,0.0
397,799.0115187186983
448,0.029996940000000004
449,59.98217797739706
450,49.63442028840738
587,1233.2912145278515
588,50.16664769366484
589,60.00000000000001
590,0.029996940000000004
120,4677448.372300265
2,4, 1, 4, 0,13, 0.00,60.00,Wednesday
7,-2.9
314,19.53097569313246
315,0.0
379,0.0
393,0.0
394,0.0
396,0.0
397,809.0774573201777
448,0.029996940000000004
449,59.98756599674723
450,49.54410995279616
587,1253.184629877893
588,50.007880707885487
589,60.0
590,0.029996940000000004
120,4806664.667560415
2,4, 1, 4, 0,14, 0.00,60.00,Wednesday
7,-3.5
314,19.29953760777143
315,0.0
379,0.0
393,0.0
394,0.0
396,0.0
397,810.3452053437688
448,0.029996940000000004
449,59.99132509029225
450,49.534248766673538
587,1268.4812650781857
588,49.885851945884038
589,60.00000000000001
590,0.029996940000000004
120,4818532.5542814689
2,4, 1, 4, 0,15, 0.00,60.00,Wednesday
7,-4.2
314,19.067764632340418
315,0.0
379,0.0
393,0.0
394,0.0
396,0.0
397,818.372961385461
448,0.030153174062500004
449,59.99395371787031
450,49.49174716029566
587,1286.8766802510588
588,49.792296570898638
589,60.00000000000001
590,0.030153174062500004
120,4877556.048903812
2,4, 1, 4, 0,16, 0.00,60.00,Wednesday
7,-4.8
314,19.083771979673324
315,0.0
379,0.0
393,0.0
394,0.0
396,0.0
397,892.3922798022123
448,0.033043504218750009
449,59.99585605832166
450,49.57816371794934
587,1418.3736494984423
588,49.73332227521623
589,60.0
590,0.033043504218750009
120,5314945.138194392
2,4, 1, 4, 0,17, 0.00,60.00,Wednesday
7,-5.1
314,19.082256772378768
315,0.0
379,0.0
393,0.0
394,0.0
396,0.0
397,893.5086310908554
448,0.033121621250000007
449,59.997214955023
450,49.59462270013578
587,1425.4013265679496
588,49.70677428861556
589,60.00000000000001
590,0.033121621250000007
120,5361844.775644618
2,4, 1, 4, 0,18, 0.00,60.00,Wednesday
7,-5.5
314,19.13839314753882
315,0.0
379,0.0
393,0.0
394,0.0
396,0.0
397,820.4849816861357
448,0.029996940000000004
449,59.99809497064587
450,49.454817038385687
587,1295.5915048277209
588,49.66958344346712
589,60.0
590,0.029996940000000004
120,5024129.417379796
2,4, 1, 4, 0,19, 0.00,60.00,Wednesday
7,-5.8
314,19.631179858936318
315,0.0
379,0.0
393,0.0
394,0.0
396,0.0
397,352.67371580103318
448,0.01285583142857143
449,59.99853394616829
450,55.46969934285675
587,557.1525240396792
588,49.634418778252
589,54.07688954984501
590,0.01285583142857143
120,2358549.0865428454
2,4, 1, 4, 0,20, 0.00,60.00,Wednesday
7,-5.9
314,19.47049121831941
315,0.0
379,0.0
393,0.0
394,0.0
396,0.0
397,262.44508112945018
448,0.009998980000000001
449,59.998721589615268
450,56.46058570723793
587,434.17695494833517
588,49.614257767124978
589,53.076182814658327
590,0.009998980000000001
120,1851037.0378140065
2,4, 1, 4, 0,21, 0.00,60.00,Wednesday
7,-6.1
314,18.43234908174813
315,0.0
379,0.0
393,0.0
394,0.0
396,0.0
397,0.0
448,0.0
449,59.99879700109929
450,59.99879700109929
587,0.0
588,49.60331801953815
589,49.60331801953815
590,0.0
120,259200.0
2,4, 1, 4, 0,22, 0.00,60.00,Wednesday
7,-6.2
314,18.25175508101894
315,0.0
379,0.0
393,0.0
394,0.0
396,0.0
397,0.0
448,0.0
449,59.99879700109929
450,59.99879700109929
587,0.0
588,49.60331801953815
589,49.60331801953815
590,0.0
120,324000.0
2,4, 1, 4, 0,23, 0.00,60.00,Wednesday
7,-6.2
314,17.831584349095637
315,0.0
379,0.0
393,0.0
394,0.0
396,0.0
397,0.0
448,0.0
449,59.99879700109929
450,59.99879700109929
587,0.0
588,49.60331801953815
589,49.60331801953815
590,0.0
120,216000.0
2,4, 1, 4, 0,24, 0.00,60.00,Wednesday
7,-6.3
314,17.552674257868408
315,0.0
379,0.0
393,0.0
394,0.0
396,0.0
397,0.0
448,0.0
449,59.99879700109929
450,59.99879700109929
587,0.0
588,49.60331801953815
589,49.60331801953815
590,0.0
120,57600.0
2,5, 1, 5, 0, 1, 0.00,60.00,Thursday
7,-6.3
314,17.06757087356992
315,0.0
379,0.0
393,0.0
394,0.0
396,0.0
397,0.0
448,0.0
449,59.99879700109929
450,59.99879700109929
587,0.0
588,49.60331801953815
589,49.60331801953815
590,0.0
120,43200.0
2,5, 1, 5, 0, 2, 0.00,60.00,Thursday
7,-6.4
314,16.91676150322147
315,0.0
379,0.0
393,0.0
394,0.0
396,0.0
397,0.0
448,0.0
449,59.99879700109929
450,59.99879700109929
587,0.0
588,49.60331801953815
589,49.60331801953815
590,0.0
120,43200.0
2,5, 1, 5, 0, 3, 0.00,60.00,Thursday
7,-6.5
314,16.819376146748973
315,0.0
379,0.0
393,0.0
394,0.0
396,0.0
397,0.0
448,0.0
449,59.99879700109929
450,59.99879700109929
587,0.0
588,49.60331801953815
589,49.60331801953815
590,0.0
120,43200.0
2,5, 1, 5, 0, 4, 0.00,60.00,Thursday
7,-6.6
314,16.70333647316488
315,0.0
379,0.0
393,0.0
394,0.0
396,0.0
397,0.0
448,0.0
449,59.99879700109929
450,59.99879700109929
587,0.0
588,49.60331801953815
589,49.60331801953815
590,0.0
120,43200.0
2,5, 1, 5, 0, 5, 0.00,60.00,Thursday
7,-6.4
314,16.598408062881579
315,0.0
379,0.0
393,0.0
394,0.0
396,0.0
397,0.0
448,0.0
449,59.99879700109929
450,59.99879700109929
587,0.0
588,49.60331801953815
589,49.60331801953815
590,0.0
120,43200.0
2,5, 1, 5, 0, 6, 0.00,60.00,Thursday
7,-6.3
314,21.208616487232236
315,0.0
379,0.0
393,0.0
394,0.0
396,0.0
397,1269.6981320610441
448,0.045084686607142859
449,59.87384272076304
450,50.40252730165995
587,1857.8547432113046
588,49.79270983369473
589,59.67428759469799
590,0.045084686607142859
120,6731477.075560697
2,5, 1, 5, 0, 7, 0.00,60.00,Thursday
7,-6.1
314,21.18000166645126
315,0.0
379,0.0
393,0.0
394,0.0
396,0.0
397,1133.3302460125124
448,0.049994899999999998
449,59.82436339588773
450,50.67084938049889
587,2000.0
588,50.161610971185428