Program Version,EnergyPlus, Version 8.9.0-40101eaafd, YMD=2018.11.28 12:55
1,5,Environment Title[],Latitude[deg],Longitude[deg],Time Zone[],Elevation[m]
2,8,Day of Simulation[],Month[],Day of Month[],DST Indicator[1=yes 0=no],Hour[],StartMinute[],EndMinute[],DayType
3,5,Cumulative Day of Simulation[],Month[],Day of Month[],DST Indicator[1=yes 0=no],DayType  ! When Daily Report Variables Requested
4,2,Cumulative Days of Simulation[],Month[]  ! When Monthly Report Variables Requested
5,1,Cumulative Days of Simulation[] ! When Run Period Report Variables Requested
6,1,Calendar Year of Simulation[] ! When Annual Report Variables Requested
7,1,Environment,Site Outdoor Air Drybulb Temperature [C] !Hourly
94,1,ZONE ONE,Zone Air Temperature [C] !Hourly
95,1,RADIATOR,Baseboard Total Heating Rate [W] !Hourly
158,1,RADIATOR,Baseboard Hot Water Mass Flow Rate [kg/s] !Hourly
159,1,RADIATOR,Baseboard Water Inlet Temperature [C] !Hourly
160,1,RADIATOR,Baseboard Water Outlet Temperature [C] !Hourly
198,1,DISTRICT HEATING 1,District Heating Rate [W] !Hourly
199,1,DISTRICT HEATING 1,District Heating Inlet Temperature [C] !Hourly
200,1,DISTRICT HEATING 1,District Heating Outlet Temperature [C] !Hourly
201,1,DISTRICT HEATING 1,District Heating Mass Flow Rate [kg/s] !Hourly
163,1,DistrictHeating:Facility [J] !Hourly
End of Data Dictionary
1,ANNUAL SIM 1,  59.65,  17.95,   1.00,  61.00
2,1, 1,25, 0, 1, 0.00,60.00,Wednesday
7,-7.593333333333334
94,19.02543883623908
95,970.2668057138196
158,0.04262586005208334
159,55.0
160,46.283030866321478
198,1553.0790849291475
199,46.28363930974258
200,55.0
201,0.04262586005208334
163,5591084.705744928
2,1, 1,25, 0, 2, 0.00,60.00,Wednesday
7,-9.493333333333334
94,19.02830300778103
95,1055.7847349996514
158,0.047540723268229178
159,55.0
160,46.502559374323457
198,1715.7039455147856
199,46.36619671575916
200,55.0
201,0.047540723268229178
163,6176534.203853227
2,1, 1,25, 0, 3, 0.00,60.00,Wednesday
7,-9.293333333333333
94,19.028988820836437
95,1078.5182904354858
158,0.04888824205729168
159,55.0
160,46.562801006900517
198,1742.40151482036
199,46.474135930044699
200,55.0
201,0.04888824205729168
163,6272645.453353296
2,1, 1,25, 0, 4, 0.00,60.00,Wednesday
7,-9.093333333333332
94,19.02916759079339
95,1076.7170543587476
158,0.048777576263020847
159,55.0
160,46.55791720679718
198,1724.6905389810534
199,46.5417203546835
200,55.0
201,0.048777576263020847
163,6208885.940331792
2,1, 1,25, 0, 5, 0.00,60.00,Wednesday
7,-8.84
94,19.028927890936875
95,1079.388642909174
158,0.04894682983072918
159,55.0
160,46.565416682024928
198,1722.7919064447535
199,46.580272909789787
200,55.0
201,0.04894682983072918
163,6202050.8632011129
2,1, 1,25, 0, 6, 0.00,60.00,Wednesday
7,-8.593333333333334
94,19.028604649265338
95,1071.4073690277326
158,0.048465108138020848
159,55.0
160,46.543878686501468
198,1702.352631397019
199,46.597460310811289
200,55.0
201,0.048465108138020848
163,6128469.473029268
2,1, 1,25, 0, 7, 0.00,60.00,Wednesday
7,-8.34
94,19.028064639410944
95,1052.2319926093755
158,0.04731288192708332
159,55.0
160,46.49237891550697
198,1663.2451515107507
199,46.59053085130084
200,55.0
201,0.04731288192708332
163,5987682.545438704
2,1, 1,25, 0, 8, 0.00,60.00,Wednesday
7,-7.986666666666666
94,19.027918098262039
95,1044.2041506250248
158,0.04683766998697915
159,55.0
160,46.47115394128455
198,1650.3880869192326
199,46.57087613893141
200,55.0
201,0.04683766998697915
163,5941397.112909236
2,1, 1,25, 0, 9, 0.00,60.00,Wednesday
7,-7.586666666666667
94,19.027842886196166
95,1036.3377379714532
158,0.04637547755208334
159,55.0
160,46.450499815656929
198,1637.7037483725107
199,46.55226751278484
200,55.0
201,0.04637547755208334
163,5895733.4941410389
2,1, 1,25, 0,10, 0.00,60.00,Wednesday
7,-7.1866666666666669
94,19.026828552416967
95,1012.6704322184911
158,0.045001919752604178
159,55.0
160,46.38903632868637
198,1594.5043762539233
199,46.52396535072985
200,55.0
201,0.045001919752604178
163,5740215.754514124
2,1, 1,25, 0,11, 0.00,60.00,Wednesday
7,-6.786666666666665
94,19.025798046721925
95,977.3741647611824
158,0.04300342570312501
159,55.0
160,46.29983818314709
198,1532.233212017925
199,46.476322847729068
200,55.0
201,0.04300342570312501
163,5516039.563264531
2,1, 1,25, 0,12, 0.00,60.00,Wednesday
7,-6.386666666666667
94,19.024754116672378
95,942.836569595385
158,0.04109606819010417
159,55.0
160,46.21504061472948
198,1475.0691419547932
199,46.413475403594059
200,55.0
201,0.04109606819010417
163,5310248.911037256
2,1, 1,25, 0,13, 0.00,60.00,Wednesday
7,-5.986666666666666
94,19.023962439214665
95,920.6660684135079
158,0.03989827371093749
159,55.0
160,46.16203394563577
198,1442.658925722917
199,46.35012050096732
200,55.0
201,0.03989827371093749
163,5193572.132602501
2,1, 1,25, 0,14, 0.00,60.00,Wednesday
7,-5.799999999999998
94,19.02390237416261
95,916.8914492103111
158,0.03969647138020833
159,55.0
160,46.153147433769408
198,1443.6763209397434
199,46.30012428383649
200,55.0
201,0.03969647138020833
163,5197234.755383076
2,1, 1,25, 0,15, 0.00,60.00,Wednesday
7,-5.799999999999998
94,19.024239294962265
95,931.7842360620197
158,0.040497170950520838
159,55.0
160,46.188454161159679
198,1476.981172885449
199,46.275382862608378
200,55.0
201,0.040497170950520838
163,5317132.2223876169
2,1, 1,25, 0,16, 0.00,60.00,Wednesday
7,-5.8533333333333339
94,19.02484217419442
95,951.897875396996
158,0.04159080938802084
159,55.0
160,46.236908604634
198,1516.5546020647039
199,46.27713225020604
200,55.0
201,0.04159080938802084
163,5459596.5674329339
2,1, 1,25, 0,17, 0.00,60.00,Wednesday
7,-5.900000000000001
94,19.02533375719712
95,963.8512927963153
158,0.04224829440104167
159,55.0
160,46.26614464048137
198,1537.42295018183
199,46.29474905938782
200,55.0
201,0.04224829440104167
163,5534722.620654587
2,1, 1,25, 0,18, 0.00,60.00,Wednesday
7,-5.900000000000001
94,19.025229919368408
95,961.7561298048079
158,0.04213111885416667
159,55.0
160,46.260935208768497
198,1530.6776938420307
199,46.30885402399627
200,55.0
201,0.04213111885416667
163,5510439.697831312
2,1, 1,25, 0,19, 0.00,60.00,Wednesday
7,-5.900000000000001
94,19.025183205126245
95,958.1108889651977
158,0.0419293165234375
159,55.0
160,46.25199090489386
198,1522.6139139811382
199,46.313026419718458
200,55.0
201,0.0419293165234375
163,5481410.090332098
2,1, 1,25, 0,20, 0.00,60.00,Wednesday
7,-5.846666666666666
94,19.025061654424296
95,955.6966140594352
158,0.041799121471354169
159,55.0
160,46.24618365553526
198,1517.634183100221
199,46.3144680964385
200,55.0
201,0.041799121471354169
163,5463483.059160795
2,1, 1,25, 0,21, 0.00,60.00,Wednesday
7,-5.746666666666667
94,19.024885203381865
95,949.6763166395052
158,0.04146712408854168
159,55.0
160,46.231438671866467
198,1506.3706409909935
199,46.30990344185193
200,55.0
201,0.04146712408854168
163,5422934.307567577
2,1, 1,25, 0,22, 0.00,60.00,Wednesday
7,-5.6466666666666669
94,19.024972669022476
95,945.3632868253355
158,0.041232772994791676
159,55.0
160,46.22110003559678
198,1499.1258430754299
199,46.30254063368927
200,55.0
201,0.041232772994791676
163,5396853.035071548
2,1, 1,25, 0,23, 0.00,60.00,Wednesday
7,-5.493333333333333
94,19.024644884305496
95,939.4225370911297
158,0.04090728536458334
159,55.0
160,46.20663953065074
198,1488.8629889678118
199,46.29334589024726
200,55.0
201,0.04090728536458334
163,5359906.760284123
2,1, 1,25, 0,24, 0.00,60.00,Wednesday
7,-5.346666666666667
94,19.024421603251697
95,933.0996486722845
158,0.0405622684765625
159,55.0
160,46.191371260831839
198,1478.2805612985535
199,46.28169622533048
200,55.0
201,0.0405622684765625
163,5321810.020674792
2,2, 1,26, 0, 1, 0.00,60.00,Thursday
7,-5.246666666666667
94,19.02420975525143
95,928.3727374219792
158,0.040308388125000007
159,55.0
160,46.180136544243968
198,1471.0420028409505
199,46.269738491149258
200,55.0
201,0.040308388125000007
163,5295751.210227422
2,2, 1,26, 0, 2, 0.00,60.00,Thursday
7,-5.573333333333335
94,19.024265549986166
95,933.0709113661118
158,0.0405622684765625
159,55.0
160,46.19132745364312
198,1481.7659978643708
199,46.261141258669997
200,55.0
201,0.0405622684765625
163,5334357.592311733
2,2, 1,26, 0, 3, 0.00,60.00,Thursday
7,-6.273333333333332
94,19.02491400070631
95,955.0430433801774
158,0.04176657270833333
159,55.0
160,46.24470267682945
198,1524.213716830884
199,46.26993989134191
200,55.0
201,0.04176657270833333
163,5487169.380591183
2,2, 1,26, 0, 4, 0.00,60.00,Thursday
7,-7.026666666666667
94,19.02544199427138
95,975.9612602525395
158,0.04292530867187501
159,55.0
160,46.296239558062179
198,1561.481123018732
199,46.2979267232003
200,55.0
201,0.04292530867187501
163,5621332.042867435
2,2, 1,26, 0, 5, 0.00,60.00,Thursday
7,-7.773333333333331
94,19.026385468817016
95,1000.2471453477718
158,0.04429235671875
159,55.0
160,46.35726598267629
198,1604.0572437912326
199,46.33649943315608
200,55.0
201,0.04429235671875
163,5774606.077648437
2,2, 1,26, 0, 6, 0.00,60.00,Thursday
7,-8.473333333333331
94,19.02685363250033
95,1025.6160750889803
158,0.04575054130208333
159,55.0
160,46.42239733021199
198,1647.1416631466666
199,46.38734572880415
200,55.0
201,0.04575054130208333
163,5929709.9873279989
2,2, 1,26, 0, 7, 0.00,60.00,Thursday
7,-9.173333333333334
94,19.02773953598869
95,1050.7984840876506
158,0.04722825514322916
159,55.0
160,46.48851039227802
198,1688.8202849506981
199,46.44572141172357
200,55.0
201,0.04722825514322916
163,6079753.025822512
2,2, 1,26, 0, 8, 0.00,60.00,Thursday
7,-9.553333333333335
94,19.028585874250095
95,1070.6412826922362
158,0.04841303011718752
159,55.0
160,46.54153240027581
198,1718.8309194823398
199,46.50688095628422
200,55.0
201,0.04841303011718752
163,6187791.3101364229
2,2, 1,26, 0, 9, 0.00,60.00,Thursday
7,-9.599999999999998
94,19.02884679954696
95,1076.1884858459111
158,0.04874502750000001
159,55.0
160,46.556401986581068
198,1720.5406840824012
199,46.55645107114287
200,55.0
201,0.04874502750000001
163,6193946.4626966449
2,2, 1,26, 0,10, 0.00,60.00,Thursday
7,-9.653333333333333
94,19.02825238414357
95,1063.3116859968775
158,0.04797036694010417
159,55.0
160,46.52174479015236
198,1688.836828335475
199,46.578196651856838
200,55.0
201,0.04797036694010417
163,6079812.582007708
2,2, 1,26, 0,11, 0.00,60.00,Thursday
7,-9.753333333333334
94,19.027725498935255
95,1041.1123499779492
158,0.0466553969140625
159,55.0
160,46.46297386957872
198,1644.3962284904228
199,46.568620571502389
200,55.0
201,0.0466553969140625
163,5919826.422565524
2,2, 1,26, 0,12, 0.00,60.00,Thursday
7,-9.853333333333334
94,19.027027038726805
95,1024.3998320636074
158,0.045678934023437509
159,55.0
160,46.41926665872748
198,1615.4754530284185
199,46.539863342941028
200,55.0
201,0.045678934023437509
163,5815711.630902306
2,2, 1,26, 0,13, 0.00,60.00,Thursday
7,-9.953333333333335
94,19.026789683290994
95,1014.6365518196072
158,0.04511909529947917
159,55.0
160,46.39424506028161
198,1600.5877966160292
199,46.51372287205475
200,55.0
201,0.04511909529947917
163,5762116.067817707
2,2, 1,26, 0,14, 0.00,60.00,Thursday
7,-10.16
94,19.02218605331696
95,867.0104455738467
158,0.03714139348307292
159,55.0
160,46.04308558081918
198,1329.4514367765928
199,46.43388289852526
200,55.0
201,0.03714139348307292
163,4786025.172395734
2,2, 1,26, 0,15, 0.00,60.00,Thursday
7,-10.46
94,19.019118955962964
95,786.31893975383
158,0.033072798105468748
159,55.0
160,45.86856781002917
198,1205.8972605525914
199,46.27861361186552
200,55.0
201,0.033072798105468748
163,4341230.13798933
2,2, 1,26, 0,16, 0.00,60.00,Thursday
7,-10.76
94,19.024758865429296
95,968.6302908298751
158,0.042674683196614587
159,55.0
160,46.28577098975781
198,1564.2602706747653
199,46.22940751903716
200,55.0
201,0.042674683196614587
163,5631336.974429156
2,2, 1,26, 0,17, 0.00,60.00,Thursday
7,-11.273333333333334
94,18.949081168944067
95,1096.60895360569
158,0.049897253710937488
159,55.0
160,46.5921185489257
198,1797.8275464823791
199,46.380650030507208
200,55.0
201,0.049897253710937488
163,6472179.167336567
2,2, 1,26, 0,18, 0.00,60.00,Thursday
7,-11.919999999999999
94,18.71446991692347
95,1105.3668512518202
158,0.04999489999999999
159,55.0
160,46.542032717646168
198,1777.724998811191
199,46.49387905304159
200,55.0
201,0.04999489999999999
163,6399809.995720288
2,2, 1,26, 0,19, 0.00,60.00,Thursday
7,-12.573333333333335
94,18.51996246791747
95,1111.4618277269335
158,0.04999489999999999
159,55.0
160,46.49619291032439
198,1769.4559952506975
199,46.533460921782687
200,55.0
201,0.04999489999999999
163,6370041.582902513
2,2, 1,26, 0,20, 0.00,60.00,Thursday
7,-13.273333333333334
94,18.34379548512972
95,1117.016958019245
158,0.04999489999999999
159,55.0
160,46.455174464067919
198,1768.936079485084
199,46.535949636845959
200,55.0
201,0.04999489999999999
163,6368169.886146303
2,2, 1,26, 0,21, 0.00,60.00,Thursday
7,-13.973333333333335
94,18.1489452510492
95,1123.0003915508346
158,0.04999489999999999
159,55.0
160,46.409776253754539
198,1772.7533355598068
199,46.51767731526528
200,55.0
201,0.04999489999999999
163,6381912.008015305
2,2, 1,26, 0,22, 0.00,60.00,Thursday
7,-14.673333333333336
94,17.97032321333166
95,1128.5318963621564
158,0.04999489999999999
159,55.0
160,46.367840268803508
198,1778.9775929932498
199,46.48788316858876
200,55.0
201,0.04999489999999999
163,6404319.3347757
2,2, 1,26, 0,23, 0.00,60.00,Thursday
7,-15.32
94,17.807801252432978
95,1133.5622438512926
158,0.04999489999999999
159,55.0
160,46.3297256907365
198,1786.1408345352631
199,46.45359420835847
200,55.0
201,0.04999489999999999
163,6430107.004326945
2,2, 1,26, 0,24, 0.00,60.00,Thursday
7,-15.973333333333335
94,17.654121685148249
95,1138.2903147731486
158,0.04999489999999999
159,55.0
160,46.29382911032891
198,1793.5309774951295
199,46.41821900042084
200,55.0
201,0.04999489999999999
163,6456711.518982466
2,3, 1,27, 0, 1, 0.00,60.00,Friday
7,-16.673333333333337
94,17.501241086981385
95,1142.961365220761
158,0.04999489999999999
159,55.0
160,46.25820234174803
198,1800.947343645489
199,46.382718146691647
200,55.0
201,0.04999489999999999
163,6483410.437123761
2,3, 1,27, 0, 2, 0.00,60.00,Friday
7,-17.0
94,17.368083204075814
95,1147.103498596748
158,0.04999489999999999
159,55.0
160,46.22629118205455
198,1808.2811773125363
199,46.347612243450047
200,55.0
201,0.04999489999999999
163,6509812.23832513
2,3, 1,27, 0, 3, 0.00,60.00,Friday
7,-17.0
94,17.319649084621465
95,1148.8538390529968
158,0.04999489999999999
159,55.0
160,46.213594897943469
198,1814.3882927138843
199,46.31837835862243
200,55.0
201,0.04999489999999999
163,6531797.853769985
2,3, 1,27, 0, 4, 0.00,60.00,Friday
7,-17.0
94,17.340684541951079
95,1148.361804467403
158,0.04999489999999999
159,55.0
160,46.21774589329401
198,1817.9871275677299
199,46.30115121486303
200,55.0
201,0.04999489999999999
163,6544753.659243828
2,3, 1,27, 0, 5, 0.00,60.00,Friday
7,-16.94666666666667
94,17.337181162401394
95,1148.29183196807
158,0.04999489999999999
159,55.0
160,46.21815259676042
198,1819.526739519518
199,46.2937812881121
200,55.0
201,0.04999489999999999
163,6550296.262270264
2,3, 1,27, 0, 6, 0.00,60.00,Friday
7,-16.793333333333334
94,17.322162036756497
95,1148.6328411231343
158,0.04999489999999999
159,55.0
160,46.21401105256972
198,1820.7991332623312
199,46.28769049684488
200,55.0
201,0.04999489999999999
163,6554876.879744393
2,3, 1,27, 0, 7, 0.00,60.00,Friday
7,-16.646666666666666
94,17.34515209205357
95,1147.9865287535436
158,0.04999489999999999
159,55.0
160,46.21879200901805
198,1821.4301483847062
199,46.284669904353417
200,55.0
201,0.04999489999999999
163,6557148.534184942
2,3, 1,27, 0, 8, 0.00,60.00,Friday
7,-16.173333333333337
94,17.406611852985919
95,1146.2703985421651
158,0.04999489999999999
159,55.0
160,46.23229461915709
198,1820.8660959225433
199,46.2873699547366
200,55.0
201,0.04999489999999999
163,6555117.945321157
2,3, 1,27, 0, 9, 0.00,60.00,Friday
7,-15.373333333333335
94,17.560902389991229
95,1141.984009873561
158,0.04999489999999999
159,55.0
160,46.266159368865618
198,1818.3838566956465
199,46.29925212238698
200,55.0
201,0.04999489999999999
163,6546181.884104328
2,3, 1,27, 0,10, 0.00,60.00,Friday
7,-14.57333333333333
94,17.923204202998208
95,1131.482566948154
158,0.04999489999999999
159,55.0
160,46.346628465796857
198,1811.6388766562593
199,46.33153942279746
200,55.0
201,0.04999489999999999
163,6521899.955962531
2,3, 1,27, 0,11, 0.00,60.00,Friday
7,-13.613333333333335
94,18.498964554126855
95,1114.1049325386152
158,0.04999489999999999
159,55.0
160,46.47909395745098
198,1797.4322886110062
199,46.39954409299223
200,55.0
201,0.04999489999999999
163,6470756.238999622
2,3, 1,27, 0,12, 0.00,60.00,Friday
7,-12.566666666666667
94,18.982669896590214
95,1058.7481662791165
158,0.04761884029947917
159,55.0
160,46.4914976478918
198,1695.5083150611956
199,46.48302457158357
200,55.0
201,0.04761884029947917
163,6103829.934220306
2,3, 1,27, 0,13, 0.00,60.00,Friday
7,-11.513333333333332
94,19.02467339392199
95,958.2289041405008
158,0.04194884578125001
159,55.0
160,46.25283769268564
198,1497.685037986278
199,46.4587345750657
200,55.0
201,0.04194884578125001
163,5391666.1367506
2,3, 1,27, 0,14, 0.00,60.00,Friday
7,-10.84
94,19.02394904306964
95,937.8950278488921
158,0.04083242320963543
159,55.0
160,46.20318671456023
198,1470.4074664109144
199,46.38575356122663
200,55.0
201,0.04083242320963543
163,5293466.8790792929
2,3, 1,27, 0,15, 0.00,60.00,Friday
7,-10.593333333333332
94,19.025887887226746
95,998.6332933082492
158,0.044220749440104189
159,55.0
160,46.35399466536196
198,1595.488457104373
199,46.368734471602127
200,55.0
201,0.044220749440104189
163,5743758.445575744
2,3, 1,27, 0,16, 0.00,60.00,Friday
7,-10.34
94,19.02783990801986
95,1068.9164764078514
158,0.04832189358072917
159,55.0
160,46.53730592863436
198,1729.9404433593397
199,46.435323364583
200,55.0
201,0.04832189358072917
163,6227785.596093623
2,3, 1,27, 0,17, 0.00,60.00,Friday
7,-9.986666666666669
94,18.980785818844198
95,1097.3285989849305
158,0.04999489999999999
159,55.0
160,46.601895825462097
198,1769.6478224017033
199,46.53254266579435
200,55.0
201,0.04999489999999999
163,6370732.160646133
2,3, 1,27, 0,18, 0.00,60.00,Friday
7,-9.58666666666667
94,18.952209623697934
95,1098.3375952719791
158,0.04999489999999999
159,55.0
160,46.59414120667808
198,1757.4902189188417
199,46.59073811834431
200,55.0
201,0.04999489999999999
163,6326964.788107828
2,3, 1,27, 0,19, 0.00,60.00,Friday
7,-9.186666666666668
94,19.00868440244373
95,1095.152886798877
158,0.049884234205729179
159,55.0
160,46.60126626211003
198,1746.7342820402068
199,46.62369604321701
200,55.0
201,0.049884234205729179
163,6288243.415344743
2,3, 1,27, 0,20, 0.00,60.00,Friday
7,-8.466666666666667
94,19.028288860628018
95,1069.7326965314328
158,0.04836095209635417
159,55.0
160,46.53917941241966
198,1691.9175688183432
199,46.63093355425422
200,55.0
201,0.04836095209635417
163,6090903.247746036
2,3, 1,27, 0,21, 0.00,60.00,Friday
7,-7.52
94,19.02713227545655
95,1032.1158814605508
158,0.046128106953125008
159,55.0
160,46.43932222107683
198,1620.365612532614
199,46.596708861105209
200,55.0
201,0.046128106953125008
163,5833316.205117411
2,3, 1,27, 0,22, 0.00,60.00,Friday
7,-6.566666666666666
94,19.02585144042434
95,989.7535864716814
158,0.043693459479166658
159,55.0
160,46.33053323308601
198,1546.2956987288524
199,46.533873190069609
200,55.0
201,0.043693459479166658
163,5566664.515423869
2,3, 1,27, 0,23, 0.00,60.00,Friday
7,-5.886666666666667
94,19.024795346210355
95,956.4005946943081
158,0.041831670234375
159,55.0
160,46.247574044258758
198,1493.5127915628552
199,46.459035758442357
200,55.0
201,0.041831670234375
163,5376646.0496262819
2,3, 1,27, 0,24, 0.00,60.00,Friday
7,-5.540000000000001
94,19.0243640232202
95,937.8346546937541
158,0.040816148828125
159,55.0
160,46.20256023859498
198,1468.769105375763
199,46.391628412928749
200,55.0
201,0.040816148828125
163,5287568.779352748
End of Data
 Number of Records Written=         792
