Program Version,EnergyPlus, Version 8.9.0-40101eaafd, YMD=2018.12.10 15:43
1,5,Environment Title[],Latitude[deg],Longitude[deg],Time Zone[],Elevation[m]
2,8,Day of Simulation[],Month[],Day of Month[],DST Indicator[1=yes 0=no],Hour[],StartMinute[],EndMinute[],DayType
3,5,Cumulative Day of Simulation[],Month[],Day of Month[],DST Indicator[1=yes 0=no],DayType  ! When Daily Report Variables Requested
4,2,Cumulative Days of Simulation[],Month[]  ! When Monthly Report Variables Requested
5,1,Cumulative Days of Simulation[] ! When Run Period Report Variables Requested
6,1,Calendar Year of Simulation[] ! When Annual Report Variables Requested
7,1,Environment,Site Outdoor Air Drybulb Temperature [C] !Hourly
94,1,ZONE ONE,Zone Air Temperature [C] !Hourly
95,1,RADIATOR,Baseboard Total Heating Rate [W] !Hourly
158,1,RADIATOR,Baseboard Hot Water Mass Flow Rate [kg/s] !Hourly
159,1,RADIATOR,Baseboard Water Inlet Temperature [C] !Hourly
160,1,RADIATOR,Baseboard Water Outlet Temperature [C] !Hourly
198,1,DISTRICT HEATING 1,District Heating Rate [W] !Hourly
199,1,DISTRICT HEATING 1,District Heating Inlet Temperature [C] !Hourly
200,1,DISTRICT HEATING 1,District Heating Outlet Temperature [C] !Hourly
201,1,DISTRICT HEATING 1,District Heating Mass Flow Rate [kg/s] !Hourly
163,1,DistrictHeating:Facility [J] !Hourly
End of Data Dictionary
1,ANNUAL SIM 1,  59.65,  17.95,   1.00,  61.00
2,1, 1,25, 0, 1, 0.00,60.00,Wednesday
7,-7.593333333333334
94,19.875592674604474
95,1069.241698532381
158,0.04999489999999999
159,54.999999999999918
160,46.813333419980938
198,1696.0040192539016
199,46.885052352541169
200,55.0
201,0.04999489999999999
163,6105614.469314045
2,1, 1,25, 0, 2, 0.00,60.00,Wednesday
7,-9.493333333333334
94,19.51887810912429
95,1079.8585788298374
158,0.04999489999999999
159,54.999999999999918
160,46.73155932425769
198,1700.6466764337433
199,46.86282976164469
200,55.0
201,0.04999489999999999
163,6122328.035161477
2,1, 1,25, 0, 3, 0.00,60.00,Wednesday
7,-9.293333333333333
94,19.289950897415659
95,1087.6016846557209
158,0.04999489999999999
159,54.999999999999918
160,46.675127585265759
198,1710.1513536935943
199,46.81733443867722
200,55.0
201,0.04999489999999999
163,6156544.873296943
2,1, 1,25, 0, 4, 0.00,60.00,Wednesday
7,-9.093333333333332
94,19.20992725331565
95,1090.397218470072
158,0.04999489999999999
159,54.999999999999918
160,46.654940810844319
198,1718.640414110084
199,46.77670033072473
200,55.0
201,0.04999489999999999
163,6187105.4907963019
2,1, 1,25, 0, 5, 0.00,60.00,Wednesday
7,-8.84
94,19.163606214218427
95,1091.7687196493494
158,0.04999489999999999
159,54.999999999999918
160,46.64393940316462
198,1724.5564251766652
199,46.74838239945794
200,55.0
201,0.04999489999999999
163,6208403.1306359949
2,1, 1,25, 0, 6, 0.00,60.00,Wednesday
7,-8.593333333333334
94,19.169130773104138
95,1091.716757526565
158,0.04999489999999999
159,54.999999999999918
160,46.64442067273423
198,1728.3072435596773
199,46.730428468946339
200,55.0
201,0.04999489999999999
163,6221906.076814838
2,1, 1,25, 0, 7, 0.00,60.00,Wednesday
7,-8.34
94,19.232689142489585
95,1089.9612322504822
158,0.04999489999999999
159,54.999999999999918
160,46.65825448712312
198,1729.6513645754596
199,46.723994597477048
200,55.0
201,0.04999489999999999
163,6226744.912471655
2,1, 1,25, 0, 8, 0.00,60.00,Wednesday
7,-7.986666666666666
94,19.290445310718068
95,1088.1455293791328
158,0.04999489999999999
159,54.999999999999918
160,46.67231369004892
198,1728.906984301376
199,46.72755770516783
200,55.0
201,0.04999489999999999
163,6224065.143484954
2,1, 1,25, 0, 9, 0.00,60.00,Wednesday
7,-7.586666666666667
94,19.335642986710455
95,1086.744145405955
158,0.04999489999999999
159,54.999999999999918
160,46.682637888421648
198,1727.4461661323176
199,46.73455016606105
200,55.0
201,0.04999489999999999
163,6218806.198076344
2,1, 1,25, 0,10, 0.00,60.00,Wednesday
7,-7.1866666666666669
94,19.430796585542788
95,1083.9398648569406
158,0.04999489999999999
159,54.999999999999918
160,46.70380326356183
198,1725.209532402151
199,46.74525619393833
200,55.0
201,0.04999489999999999
163,6210754.316647745
2,1, 1,25, 0,11, 0.00,60.00,Wednesday
7,-6.786666666666665
94,19.59022390448026
95,1079.1201635261775
158,0.04999489999999999
159,54.999999999999918
160,46.74007288543221
198,1721.1961127298275
199,46.76446708192533
200,55.0
201,0.04999489999999999
163,6196306.005827379
2,1, 1,25, 0,12, 0.00,60.00,Wednesday
7,-6.386666666666667
94,19.777863962032485
95,1073.2629032316984
158,0.04999489999999999
159,54.999999999999918
160,46.78387215762005
198,1715.0701062108506
199,46.793790143795408
200,55.0
201,0.04999489999999999
163,6174252.382359061
2,1, 1,25, 0,13, 0.00,60.00,Wednesday
7,-5.986666666666666
94,19.933533666786976
95,1068.2852093823444
158,0.04999489999999999
159,54.999999999999918
160,46.82098853028149
198,1707.8340353968622
199,46.82842659318543
200,55.0
201,0.04999489999999999
163,6148202.527428703
2,1, 1,25, 0,14, 0.00,60.00,Wednesday
7,-5.799999999999998
94,20.015595392521843
95,1065.51718705126
158,0.04999489999999999
159,54.999999999999918
160,46.84156637476043
198,1701.1475201096944
199,46.86043241935673
200,55.0
201,0.04999489999999999
163,6124131.072394899
2,1, 1,25, 0,15, 0.00,60.00,Wednesday
7,-5.799999999999998
94,19.999721459275844
95,1065.792521203176
158,0.04999489999999999
159,54.999999999999918
160,46.83923110160654
198,1696.727880144342
199,46.88158751595003
200,55.0
201,0.04999489999999999
163,6108220.36851963
2,1, 1,25, 0,16, 0.00,60.00,Wednesday
7,-5.8533333333333339
94,19.925111193536038
95,1068.052894549881
158,0.04999489999999999
159,54.999999999999918
160,46.822399886659287
198,1695.3703836350837
199,46.888085314894997
200,55.0
201,0.04999489999999999
163,6103333.381086303
2,1, 1,25, 0,17, 0.00,60.00,Wednesday
7,-5.900000000000001
94,19.849743948584835
95,1070.4860617009872
158,0.04999489999999999
159,54.999999999999918
160,46.80424606640612
198,1696.4181881722432
199,46.88306988962197
200,55.0
201,0.04999489999999999
163,6107105.477420076
2,1, 1,25, 0,18, 0.00,60.00,Wednesday
7,-5.900000000000001
94,19.826972191174418
95,1071.3469176380595
158,0.04999489999999999
159,54.999999999999918
160,46.79815596680898
198,1698.1024118268979
199,46.87500817358055
200,55.0
201,0.04999489999999999
163,6113168.682576831
2,1, 1,25, 0,19, 0.00,60.00,Wednesday
7,-5.900000000000001
94,19.834314786139374
95,1071.1485952951607
158,0.04999489999999999
159,54.999999999999918
160,46.799877247017537
198,1699.1033195368013
199,46.870217219313399
200,55.0
201,0.04999489999999999
163,6116771.950332485
2,1, 1,25, 0,20, 0.00,60.00,Wednesday
7,-5.846666666666666
94,19.838201811972774
95,1071.0075135529141
158,0.04999489999999999
159,54.999999999999918
160,46.80040920048399
198,1699.5968658185407
199,46.86785480516708
200,55.0
201,0.04999489999999999
163,6118548.716946747
2,1, 1,25, 0,21, 0.00,60.00,Wednesday
7,-5.746666666666667
94,19.863357449754088
95,1070.2499916225363
158,0.04999489999999999
159,54.999999999999918
160,46.80623174002374
198,1699.5041534549164
199,46.86829858323968
200,55.0
201,0.04999489999999999
163,6118214.952437699
2,1, 1,25, 0,22, 0.00,60.00,Wednesday
7,-5.6466666666666669
94,19.887852400971224
95,1069.4917099416755
158,0.04999489999999999
159,54.999999999999918
160,46.8119431875277
198,1698.9050597154153
199,46.87116621182543
200,55.0
201,0.04999489999999999
163,6116058.214975495
2,1, 1,25, 0,23, 0.00,60.00,Wednesday
7,-5.493333333333333
94,19.9167059062337
95,1068.62121225422
158,0.04999489999999999
159,54.999999999999918
160,46.8185394347143
198,1698.0075363928604
199,46.875462305223248
200,55.0
201,0.04999489999999999
163,6112827.131014298
2,1, 1,25, 0,24, 0.00,60.00,Wednesday
7,-5.346666666666667
94,19.9512817453961
95,1067.5643999326799
158,0.04999489999999999
159,54.999999999999918
160,46.826616575031469
198,1696.7998574604856
199,46.88124298952948
200,55.0
201,0.04999489999999999
163,6108479.486857747
2,2, 1,26, 0, 1, 0.00,60.00,Thursday
7,-5.246666666666667
94,19.981232755969797
95,1066.622044072568
158,0.04999489999999999
159,54.999999999999918
160,46.83365740097536
198,1695.4238383590766
199,46.88782944821108
200,55.0
201,0.04999489999999999
163,6103525.818092676
2,2, 1,26, 0, 2, 0.00,60.00,Thursday
7,-5.573333333333335
94,19.985254095936296
95,1066.3633758782632
158,0.04999489999999999
159,54.999999999999918
160,46.83554430712412
198,1694.170289981915
199,46.89382968451682
200,55.0
201,0.04999489999999999
163,6099013.043934893
2,2, 1,26, 0, 3, 0.00,60.00,Thursday
7,-6.273333333333332
94,19.911952423369045
95,1068.4021907466072
158,0.04999489999999999
159,54.999999999999918
160,46.819541957912488
198,1694.2114846524678
199,46.89363250206967
200,55.0
201,0.04999489999999999
163,6099161.3447488839
2,2, 1,26, 0, 4, 0.00,60.00,Thursday
7,-7.026666666666667
94,19.806561424735955
95,1071.658879096772
158,0.04999489999999999
159,54.999999999999918
160,46.794949664549758
198,1696.338939411267
199,46.88344922160866
200,55.0
201,0.04999489999999999
163,6106820.181880558
2,2, 1,26, 0, 5, 0.00,60.00,Thursday
7,-7.773333333333331
94,19.688436110274773
95,1075.31124014662
158,0.04999489999999999
159,54.999999999999918
160,46.767914865377168
198,1699.8475684001132
199,46.866654787571167
200,55.0
201,0.04999489999999999
163,6119451.246240406
2,2, 1,26, 0, 6, 0.00,60.00,Thursday
7,-8.473333333333331
94,19.55068635195605
95,1079.585961205459
158,0.04999489999999999
159,54.999999999999918
160,46.735883625992318
198,1704.6503974078184
199,46.843665480849107
200,55.0
201,0.04999489999999999
163,6136741.430668145
2,2, 1,26, 0, 7, 0.00,60.00,Thursday
7,-9.173333333333334
94,19.408839180448206
95,1083.9569792345962
158,0.04999489999999999
159,54.999999999999918
160,46.70286406260685
198,1710.3607868008232
199,46.81633196404903
200,55.0
201,0.04999489999999999
163,6157298.832482964
2,2, 1,26, 0, 8, 0.00,60.00,Thursday
7,-9.553333333333335
94,19.27788034765268
95,1088.094067588385
158,0.04999489999999999
159,54.999999999999918
160,46.67182292198651
198,1716.5684867484379
199,46.78661792547407
200,55.0
201,0.04999489999999999
163,6179646.552294375
2,2, 1,26, 0, 9, 0.00,60.00,Thursday
7,-9.599999999999998
94,19.200203619306764
95,1090.694035213992
158,0.04999489999999999
159,54.999999999999918
160,46.652616465719969
198,1722.3546133392965
199,46.75892173289775
200,55.0
201,0.04999489999999999
163,6200476.608021467
2,2, 1,26, 0,10, 0.00,60.00,Thursday
7,-9.653333333333333
94,19.208436706651168
95,1090.6672205695884
158,0.04999489999999999
159,54.999999999999918
160,46.65318613433157
198,1726.3526227381928
199,46.73978459879444
200,55.0
201,0.04999489999999999
163,6214869.441857495
2,2, 1,26, 0,11, 0.00,60.00,Thursday
7,-9.753333333333334
94,19.287273124707597
95,1088.3422758692402
158,0.04999489999999999
159,54.999999999999918
160,46.67072282118524
198,1727.5575055376162
199,46.734017220969
200,55.0
201,0.04999489999999999
163,6219207.019935417
2,2, 1,26, 0,12, 0.00,60.00,Thursday
7,-9.853333333333334
94,19.381650966721887
95,1085.3515771570753
158,0.04999489999999999
159,54.999999999999918
160,46.69314025142491
198,1726.1648785964212
199,46.74068326828566
200,55.0
201,0.04999489999999999
163,6214193.562947117
2,2, 1,26, 0,13, 0.00,60.00,Thursday
7,-9.953333333333335
94,19.43888065497849
95,1083.5814055713392
158,0.04999489999999999
159,54.999999999999918
160,46.705973587596179
198,1723.8171597222588
199,46.75192101779707
200,55.0
201,0.04999489999999999
163,6205741.775000132
2,2, 1,26, 0,14, 0.00,60.00,Thursday
7,-10.16
94,19.854685836465757
95,1041.3293915843904
158,0.04814613026041666
159,54.999999999999918
160,46.71660644973575
198,1656.1686603826276
199,46.77150946786268
200,55.0
201,0.04814613026041666
163,5962207.177377459
2,2, 1,26, 0,15, 0.00,60.00,Thursday
7,-10.46
94,20.023495874076919
95,937.4641798372564
158,0.04236546994791667
159,54.999999999999918
160,46.51360611922698
198,1465.9931051128397
199,46.72265986415685
200,55.0
201,0.04236546994791667
163,5277575.178406223
2,2, 1,26, 0,16, 0.00,60.00,Thursday
7,-10.76
94,19.883182991258335
95,1055.3694940744629
158,0.049220239440104156
159,54.999999999999918
160,46.78437615510045
198,1701.38976283012
199,46.730575209972588
200,55.0
201,0.049220239440104156
163,6125003.146188432
2,2, 1,26, 0,17, 0.00,60.00,Thursday
7,-11.273333333333334
94,19.27942922776516
95,1086.8823515871434
158,0.04999489999999999
159,54.999999999999918
160,46.67895942591327
198,1721.1572965237062
199,46.76465288322747
200,55.0
201,0.04999489999999999
163,6196166.267485343
2,2, 1,26, 0,18, 0.00,60.00,Thursday
7,-11.919999999999999
94,18.860573334392148
95,1100.5015860177857
158,0.04999489999999999
159,54.999999999999918
160,46.57785791788428
198,1728.728641349904
199,46.72841136459952
200,55.0
201,0.04999489999999999
163,6223423.108859654
2,2, 1,26, 0,19, 0.00,60.00,Thursday
7,-12.573333333333335
94,18.590586808406113
95,1109.1267415103907
158,0.04999489999999999
159,54.999999999999918
160,46.513456223588608
198,1740.2634799771724
199,46.67319768531639
200,55.0
201,0.04999489999999999
163,6264948.527917821
2,2, 1,26, 0,20, 0.00,60.00,Thursday
7,-13.273333333333334
94,18.379208414328614
95,1115.850803680395
158,0.04999489999999999
159,54.999999999999918
160,46.46381433349768
198,1751.7827399948142
199,46.61805828846044
200,55.0
201,0.04999489999999999
163,6306417.863981332
2,2, 1,26, 0,21, 0.00,60.00,Thursday
7,-13.973333333333335
94,18.167068950116478
95,1122.4048895221563
158,0.04999489999999999
159,54.999999999999918
160,46.41419368664232
198,1762.766096174558
199,46.56548383787582
200,55.0
201,0.04999489999999999
163,6345957.946228408
2,2, 1,26, 0,22, 0.00,60.00,Thursday
7,-14.673333333333336
94,17.979694600875314
95,1128.2244273212482
158,0.04999489999999999
159,54.999999999999918
160,46.37012331683396
198,1773.2016114676876
199,46.51553151384075
200,55.0
201,0.04999489999999999
163,6383525.801283676
2,2, 1,26, 0,23, 0.00,60.00,Thursday
7,-15.32
94,17.81267376868924
95,1133.4025765880308
158,0.04999489999999999
159,54.999999999999918
160,46.33091238302979
198,1782.8180406789288
199,46.46949974835177
200,55.0
201,0.04999489999999999
163,6418144.946444144
2,2, 1,26, 0,24, 0.00,60.00,Thursday
7,-15.973333333333335
94,17.656664307837486
95,1138.2071092652689
158,0.04999489999999999
159,54.999999999999918
160,46.29444822802829
198,1791.6277751794494
199,46.427329277610819
200,55.0
201,0.04999489999999999
163,6449859.990646019
2,3, 1,27, 0, 1, 0.00,60.00,Friday
7,-16.673333333333337
94,17.50257234770203
95,1142.917888180416
158,0.04999489999999999
159,54.999999999999918
160,46.25852641851733
198,1799.8612399067235
199,46.387917142904068
200,55.0
201,0.04999489999999999
163,6479500.463664204
2,3, 1,27, 0, 2, 0.00,60.00,Friday
7,-17.0
94,17.36878290114192
95,1147.0807219409608
158,0.04999489999999999
159,54.999999999999918
160,46.22646148031739
198,1807.6632902249646
199,46.35056997546413
200,55.0
201,0.04999489999999999
163,6507587.844809869
2,3, 1,27, 0, 3, 0.00,60.00,Friday
7,-17.0
94,17.32001640759279
95,1148.8419044498303
158,0.04999489999999999
159,54.999999999999918
160,46.21368432828429
198,1814.037718232518
199,46.32005651050546
200,55.0
201,0.04999489999999999
163,6530535.785637065
2,3, 1,27, 0, 4, 0.00,60.00,Friday
7,-17.0
94,17.340876314779089
95,1148.355563179985
158,0.04999489999999999
159,54.999999999999918
160,46.21779259874323
198,1817.788720281249
199,46.302100964942848
200,55.0
201,0.04999489999999999
163,6544039.393012496
2,3, 1,27, 0, 5, 0.00,60.00,Friday
7,-16.94666666666667
94,17.33728093208816
95,1148.2885836318862
158,0.04999489999999999
159,54.999999999999918
160,46.21817689882276
198,1819.414719922727
199,46.294317511868218
200,55.0
201,0.04999489999999999
163,6549892.991721818
2,3, 1,27, 0, 6, 0.00,60.00,Friday
7,-16.793333333333334
94,17.322213792264319
95,1148.6311569118984
158,0.04999489999999999
159,54.999999999999918
160,46.214023663244208
198,1820.736027927662
199,46.28799257434618
200,55.0
201,0.04999489999999999
163,6554649.700539582
2,3, 1,27, 0, 7, 0.00,60.00,Friday
7,-16.646666666666666
94,17.34517881971182
95,1147.9856580122525
158,0.04999489999999999
159,54.999999999999918
160,46.21879852284928
198,1821.394672831092
199,46.28483972153358
200,55.0
201,0.04999489999999999
163,6557020.822191933
2,3, 1,27, 0, 8, 0.00,60.00,Friday
7,-16.173333333333337
94,17.40662562387753
95,1146.2699490613923
158,0.04999489999999999
159,54.999999999999918
160,46.23229797564582
198,1820.846191834307
199,46.28746523317572
200,55.0
201,0.04999489999999999
163,6555046.290603506
2,3, 1,27, 0, 9, 0.00,60.00,Friday
7,-15.373333333333335
94,17.560909467865124
95,1141.9837782560003
158,0.04999489999999999
159,54.999999999999918
160,46.26616109439037
198,1818.3727093165096
199,46.29930548347185
200,55.0
201,0.04999489999999999
163,6546141.7535394369
2,3, 1,27, 0,10, 0.00,60.00,Friday
7,-14.57333333333333
94,17.923207822670375
95,1131.482448178992
158,0.04999489999999999
159,54.999999999999918
160,46.34662934863776
198,1811.6326440121347
199,46.331569257583257
200,55.0
201,0.04999489999999999
163,6521877.518443683
2,3, 1,27, 0,11, 0.00,60.00,Friday
7,-13.613333333333335
94,18.498966394631688
95,1114.104872024416
158,0.04999489999999999
159,54.999999999999918
160,46.47909440647465
198,1797.4288094817048
199,46.39956074698669
200,55.0
201,0.04999489999999999
163,6470743.714134138
2,3, 1,27, 0,12, 0.00,60.00,Friday
7,-12.566666666666667
94,19.076468772554369
95,1095.8431294760128
158,0.04999489999999999
159,54.999999999999918
160,46.61485399628787
198,1776.635285773198
199,46.49909524266074
200,55.0
201,0.04999489999999999
163,6395887.028783512
2,3, 1,27, 0,13, 0.00,60.00,Friday
7,-11.513333333333332
94,19.534578926089904
95,1081.2664473183365
158,0.04999489999999999
159,54.999999999999918
160,46.72364310177958
198,1753.7161430369829
199,46.60880357809398
200,55.0
201,0.04999489999999999
163,6313378.114933139
2,3, 1,27, 0,14, 0.00,60.00,Friday
7,-10.84
94,19.799219789699305
95,1072.3657738544846
158,0.04999489999999999
159,54.999999999999918
160,46.79025896435385
198,1732.7050683791738
199,46.70937746036578
200,55.0
201,0.04999489999999999
163,6237738.246165025
2,3, 1,27, 0,15, 0.00,60.00,Friday
7,-10.593333333333332
94,19.695963167158799
95,1074.7029654495045
158,0.04999489999999999
159,54.999999999999918
160,46.77125853783871
198,1719.3049684857735
199,46.77351933741707
200,55.0
201,0.04999489999999999
163,6189497.886548786
2,3, 1,27, 0,16, 0.00,60.00,Friday
7,-10.34
94,19.403731391155597
95,1083.6466792912224
158,0.04999489999999999
159,54.999999999999918
160,46.70424125228349
198,1716.7116643114507
199,46.785932587734709
200,55.0
201,0.04999489999999999
163,6180161.991521223
2,3, 1,27, 0,17, 0.00,60.00,Friday
7,-9.986666666666669
94,19.130206800127664
95,1092.297478312104
158,0.04999489999999999
159,54.999999999999918
160,46.63883424604175
198,1721.8383706168597
199,46.761392809423679
200,55.0
201,0.04999489999999999
163,6198618.134220696
2,3, 1,27, 0,18, 0.00,60.00,Friday
7,-9.58666666666667
94,19.02121836755625
95,1096.0442889790397
158,0.04999489999999999
159,54.999999999999918
160,46.61105103625059
198,1728.9472366651391
199,46.727365026533238
200,55.0
201,0.04999489999999999
163,6224210.051994503
2,3, 1,27, 0,19, 0.00,60.00,Friday
7,-9.186666666666668
94,19.044874505610417
95,1095.651805275468
158,0.04999489999999999
159,54.999999999999918
160,46.61475123240485
198,1733.77064806148
199,46.70427689575923
200,55.0
201,0.04999489999999999
163,6241574.33302133
2,3, 1,27, 0,20, 0.00,60.00,Friday
7,-8.466666666666667
94,19.122729127273023
95,1093.4183946492096
158,0.04999489999999999
159,54.999999999999918
160,46.63215366268471
198,1735.2501999091994
199,46.69719474299531
200,55.0
201,0.04999489999999999
163,6246900.719673118
2,3, 1,27, 0,21, 0.00,60.00,Friday
7,-7.52
94,19.27643951395039
95,1088.8957821061524
158,0.04999489999999999
159,54.999999999999918
160,46.666890331285589
198,1733.5567446655884
199,46.70530078401784
200,55.0
201,0.04999489999999999
163,6240804.280796119
2,3, 1,27, 0,22, 0.00,60.00,Friday
7,-6.566666666666666
94,19.483506586636726
95,1082.6175904744025
158,0.04999489999999999
159,54.999999999999918
160,46.714624015282577
198,1728.6172070101616
199,46.72894477149833
200,55.0
201,0.04999489999999999
163,6223021.9452365799
2,3, 1,27, 0,23, 0.00,60.00,Friday
7,-5.886666666666667
94,19.68859079375265
95,1076.172658256931
158,0.04999489999999999
159,54.999999999999918
160,46.76307760181017
198,1721.2308741970692
199,46.764300687116627
200,55.0
201,0.04999489999999999
163,6196431.147109449
2,3, 1,27, 0,24, 0.00,60.00,Friday
7,-5.540000000000001
94,19.835936828427504
95,1071.4364009070036
158,0.04999489999999999
159,54.999999999999918
160,46.79832142719961
198,1713.263429361699
199,46.8024380612308
200,55.0
201,0.04999489999999999
163,6167748.345702116
End of Data
 Number of Records Written=         792
