Program Version,EnergyPlus, Version 8.9.0-40101eaafd, YMD=2018.12.11 12:40
1,5,Environment Title[],Latitude[deg],Longitude[deg],Time Zone[],Elevation[m]
2,8,Day of Simulation[],Month[],Day of Month[],DST Indicator[1=yes 0=no],Hour[],StartMinute[],EndMinute[],DayType
3,5,Cumulative Day of Simulation[],Month[],Day of Month[],DST Indicator[1=yes 0=no],DayType  ! When Daily Report Variables Requested
4,2,Cumulative Days of Simulation[],Month[]  ! When Monthly Report Variables Requested
5,1,Cumulative Days of Simulation[] ! When Run Period Report Variables Requested
6,1,Calendar Year of Simulation[] ! When Annual Report Variables Requested
7,1,Environment,Site Outdoor Air Drybulb Temperature [C] !Hourly
94,1,ZONE ONE,Zone Air Temperature [C] !TimeStep
95,1,RADIATOR,Baseboard Total Heating Rate [W] !Hourly
158,1,RADIATOR,Baseboard Hot Water Mass Flow Rate [kg/s] !Hourly
159,1,RADIATOR,Baseboard Water Inlet Temperature [C] !Hourly
160,1,RADIATOR,Baseboard Water Outlet Temperature [C] !Hourly
198,1,DISTRICT HEATING 1,District Heating Rate [W] !Hourly
199,1,DISTRICT HEATING 1,District Heating Inlet Temperature [C] !Hourly
200,1,DISTRICT HEATING 1,District Heating Outlet Temperature [C] !Hourly
201,1,DISTRICT HEATING 1,District Heating Mass Flow Rate [kg/s] !Hourly
163,1,DistrictHeating:Facility [J] !Hourly
End of Data Dictionary
1,ANNUAL SIM 1,  59.65,  17.95,   1.00,  61.00
2,1, 1, 1, 0, 1, 0.00, 2.00,Sunday
94,23.02692656903006
2,1, 1, 1, 0, 1, 2.00, 4.00,Sunday
94,22.1850573882527
2,1, 1, 1, 0, 1, 4.00, 6.00,Sunday
94,21.516463521556504
2,1, 1, 1, 0, 1, 6.00, 8.00,Sunday
94,21.006198628282897
2,1, 1, 1, 0, 1, 8.00,10.00,Sunday
94,20.590390933426396
2,1, 1, 1, 0, 1,10.00,12.00,Sunday
94,20.239607487414199
2,1, 1, 1, 0, 1,12.00,14.00,Sunday
94,19.93796741918841
2,1, 1, 1, 0, 1,14.00,16.00,Sunday
94,19.67459398293632
2,1, 1, 1, 0, 1,16.00,18.00,Sunday
94,19.439726370197364
2,1, 1, 1, 0, 1,18.00,20.00,Sunday
94,19.227680866384547
2,1, 1, 1, 0, 1,20.00,22.00,Sunday
94,19.034276762323679
2,1, 1, 1, 0, 1,22.00,24.00,Sunday
94,19.247400084993286
2,1, 1, 1, 0, 1,24.00,26.00,Sunday
94,19.283893204889858
2,1, 1, 1, 0, 1,26.00,28.00,Sunday
94,19.13662713241658
2,1, 1, 1, 0, 1,28.00,30.00,Sunday
94,19.30468387996387
2,1, 1, 1, 0, 1,30.00,32.00,Sunday
94,19.28155677934686
2,1, 1, 1, 0, 1,32.00,34.00,Sunday
94,19.088206571897496
2,1, 1, 1, 0, 1,34.00,36.00,Sunday
94,19.226552603466897
2,1, 1, 1, 0, 1,36.00,38.00,Sunday
94,19.183352350266774
2,1, 1, 1, 0, 1,38.00,40.00,Sunday
94,19.361938795101638
2,1, 1, 1, 0, 1,40.00,42.00,Sunday
94,19.29281703166212
2,1, 1, 1, 0, 1,42.00,44.00,Sunday
94,19.043940771923677
2,1, 1, 1, 0, 1,44.00,46.00,Sunday
94,19.13893437032408
2,1, 1, 1, 0, 1,46.00,48.00,Sunday
94,19.06541795883838
2,1, 1, 1, 0, 1,48.00,50.00,Sunday
94,19.22513376682286
2,1, 1, 1, 0, 1,50.00,52.00,Sunday
94,19.143260541509436
2,1, 1, 1, 0, 1,52.00,54.00,Sunday
94,19.27188059057616
2,1, 1, 1, 0, 1,54.00,56.00,Sunday
94,19.162061846623833
2,1, 1, 1, 0, 1,56.00,58.00,Sunday
94,19.272252206479295
2,1, 1, 1, 0, 1,58.00,60.00,Sunday
94,19.15132495954992
2,1, 1, 1, 0, 1, 0.00,60.00,Sunday
7,3.1300000000000005
95,257.93682842823116
158,0.007999184000000002
159,68.2805248760238
160,64.90215336051011
198,533.3333333333334
199,58.07683252809706
200,62.326039719136037
201,0.007999184000000002
163,1920000.0000000003
2,1, 1, 1, 0, 2, 0.00, 2.00,Sunday
94,19.25505433319777
2,1, 1, 1, 0, 2, 2.00, 4.00,Sunday
94,19.12919821175703
2,1, 1, 1, 0, 2, 4.00, 6.00,Sunday
94,19.229834806077819
2,1, 1, 1, 0, 2, 6.00, 8.00,Sunday
94,19.10150808785613
2,1, 1, 1, 0, 2, 8.00,10.00,Sunday
94,19.20112907549481
2,1, 1, 1, 0, 2,10.00,12.00,Sunday
94,19.072027862063015
2,1, 1, 1, 0, 2,12.00,14.00,Sunday
94,19.171935126637857
2,1, 1, 1, 0, 2,14.00,16.00,Sunday
94,19.043010856181494
2,1, 1, 1, 0, 2,16.00,18.00,Sunday
94,19.143866032735308
2,1, 1, 1, 0, 2,18.00,20.00,Sunday
94,19.015581626906508
2,1, 1, 1, 0, 2,20.00,22.00,Sunday
94,19.11768647320312
2,1, 1, 1, 0, 2,22.00,24.00,Sunday
94,19.379632912500417
2,1, 1, 1, 0, 2,24.00,26.00,Sunday
94,19.276666220592863
2,1, 1, 1, 0, 2,26.00,28.00,Sunday
94,19.334812297645674
2,1, 1, 1, 0, 2,28.00,30.00,Sunday
94,19.15264773266097
2,1, 1, 1, 0, 2,30.00,32.00,Sunday
94,19.213935834150598
2,1, 1, 1, 0, 2,32.00,34.00,Sunday
94,19.059566986616376
2,1, 1, 1, 0, 2,34.00,36.00,Sunday
94,19.146904029099959
2,1, 1, 1, 0, 2,36.00,38.00,Sunday
94,19.009144554527987
2,1, 1, 1, 0, 2,38.00,40.00,Sunday
94,19.106865970840177
2,1, 1, 1, 0, 2,40.00,42.00,Sunday
94,19.367489931219195
2,1, 1, 1, 0, 2,42.00,44.00,Sunday
94,19.261765892116676
2,1, 1, 1, 0, 2,44.00,46.00,Sunday
94,19.319671867993084
2,1, 1, 1, 0, 2,46.00,48.00,Sunday
94,19.1364743214707
2,1, 1, 1, 0, 2,48.00,50.00,Sunday
94,19.19940200078076
2,1, 1, 1, 0, 2,50.00,52.00,Sunday
94,19.045578151930017
2,1, 1, 1, 0, 2,52.00,54.00,Sunday
94,19.13563082360711
2,1, 1, 1, 0, 2,54.00,56.00,Sunday
94,19.393053949648423
2,1, 1, 1, 0, 2,56.00,58.00,Sunday
94,19.28395841338088
2,1, 1, 1, 0, 2,58.00,60.00,Sunday
94,19.340422552919475
2,1, 1, 1, 0, 2, 0.00,60.00,Sunday
7,4.671666666666667
95,557.9984366293234
158,0.016998266000000006
159,69.1209003125721
160,61.836074119060338
198,1133.3333333333333
199,57.77211982288595
200,66.8019144722147
201,0.016998266000000006
163,4080000.0000000006
2,1, 1, 1, 0, 3, 0.00, 2.00,Sunday
94,19.15525559186126
2,1, 1, 1, 0, 3, 2.00, 4.00,Sunday
94,19.21803066863985
2,1, 1, 1, 0, 3, 4.00, 6.00,Sunday
94,19.06338614046031
2,1, 1, 1, 0, 3, 6.00, 8.00,Sunday
94,19.15415814443556
2,1, 1, 1, 0, 3, 8.00,10.00,Sunday
94,19.017433639923639
2,1, 1, 1, 0, 3,10.00,12.00,Sunday
94,19.119301537408167
2,1, 1, 1, 0, 3,12.00,14.00,Sunday
94,19.385811861715348
2,1, 1, 1, 0, 3,14.00,16.00,Sunday
94,19.28150572261257
2,1, 1, 1, 0, 3,16.00,18.00,Sunday
94,19.342758475967587
2,1, 1, 1, 0, 3,18.00,20.00,Sunday
94,19.16027628622299
2,1, 1, 1, 0, 3,20.00,22.00,Sunday
94,19.22679350547411
2,1, 1, 1, 0, 3,22.00,24.00,Sunday
94,19.07418962227904
2,1, 1, 1, 0, 3,24.00,26.00,Sunday
94,19.168067918523119
2,1, 1, 1, 0, 3,26.00,28.00,Sunday
94,19.032862841901854
2,1, 1, 1, 0, 3,28.00,30.00,Sunday
94,19.137376372490328
2,1, 1, 1, 0, 3,30.00,32.00,Sunday
94,19.00852675120646
2,1, 1, 1, 0, 3,32.00,34.00,Sunday
94,19.117910555548705
2,1, 1, 1, 0, 3,34.00,36.00,Sunday
94,19.39187472924416
2,1, 1, 1, 0, 3,36.00,38.00,Sunday
94,19.291507179659694
2,1, 1, 1, 0, 3,38.00,40.00,Sunday
94,19.357082105377747
2,1, 1, 1, 0, 3,40.00,42.00,Sunday
94,19.176740817022947
2,1, 1, 1, 0, 3,42.00,44.00,Sunday
94,19.246649845639078
2,1, 1, 1, 0, 3,44.00,46.00,Sunday
94,19.095704019700209
2,1, 1, 1, 0, 3,46.00,48.00,Sunday
94,19.192588153690865
2,1, 1, 1, 0, 3,48.00,50.00,Sunday
94,19.05872811161819
2,1, 1, 1, 0, 3,50.00,52.00,Sunday
94,19.165931092174107
2,1, 1, 1, 0, 3,52.00,54.00,Sunday
94,19.03817850008086
2,1, 1, 1, 0, 3,54.00,56.00,Sunday
94,19.150013486096289
2,1, 1, 1, 0, 3,56.00,58.00,Sunday
94,19.025617315149945
2,1, 1, 1, 0, 3,58.00,60.00,Sunday
94,19.14045871192034
2,1, 1, 1, 0, 3, 0.00,60.00,Sunday
7,5.765000000000002
95,533.8372789768339
158,0.015998368000000007
159,69.92767942790319
160,62.96030853165659
198,1066.6666666666667
199,57.57070532798244
200,66.06949745649998
201,0.015998368000000007
163,3840000.0000000006
2,1, 1, 1, 0, 4, 0.00, 2.00,Sunday
94,19.0181930045004
2,1, 1, 1, 0, 4, 2.00, 4.00,Sunday
94,19.13489526623531
2,1, 1, 1, 0, 4, 4.00, 6.00,Sunday
94,19.013840408039206
2,1, 1, 1, 0, 4, 6.00, 8.00,Sunday
94,19.131724214411837
2,1, 1, 1, 0, 4, 8.00,10.00,Sunday
94,19.01142930123221
2,1, 1, 1, 0, 4,10.00,12.00,Sunday
94,19.130173222219779
2,1, 1, 1, 0, 4,12.00,14.00,Sunday
94,19.01040771978851
2,1, 1, 1, 0, 4,14.00,16.00,Sunday
94,19.129825208700628
2,1, 1, 1, 0, 4,16.00,18.00,Sunday
94,19.010446464470076
2,1, 1, 1, 0, 4,18.00,20.00,Sunday
94,19.130417129821436
2,1, 1, 1, 0, 4,20.00,22.00,Sunday
94,19.011333568883527
2,1, 1, 1, 0, 4,22.00,24.00,Sunday
94,19.13177826668167
2,1, 1, 1, 0, 4,24.00,26.00,Sunday
94,19.01293000419708
2,1, 1, 1, 0, 4,26.00,28.00,Sunday
94,19.133794668314797
2,1, 1, 1, 0, 4,28.00,30.00,Sunday
94,19.01514077988295
2,1, 1, 1, 0, 4,30.00,32.00,Sunday
94,19.13638644540567
2,1, 1, 1, 0, 4,32.00,34.00,Sunday
94,19.01789751430535
2,1, 1, 1, 0, 4,34.00,36.00,Sunday
94,19.139494604166683
2,1, 1, 1, 0, 4,36.00,38.00,Sunday
94,19.02114844630445
2,1, 1, 1, 0, 4,38.00,40.00,Sunday
94,19.143073423556709
2,1, 1, 1, 0, 4,40.00,42.00,Sunday
94,19.024852545306037
2,1, 1, 1, 0, 4,42.00,44.00,Sunday
94,19.147085914102733
2,1, 1, 1, 0, 4,44.00,46.00,Sunday
94,19.028975984269473
2,1, 1, 1, 0, 4,46.00,48.00,Sunday
94,19.151501054606237
2,1, 1, 1, 0, 4,48.00,50.00,Sunday
94,19.03348995008409
2,1, 1, 1, 0, 4,50.00,52.00,Sunday
94,19.156292085637057
2,1, 1, 1, 0, 4,52.00,54.00,Sunday
94,19.038369305936109
2,1, 1, 1, 0, 4,54.00,56.00,Sunday
94,19.16143539106513
2,1, 1, 1, 0, 4,56.00,58.00,Sunday
94,19.04359163811276
2,1, 1, 1, 0, 4,58.00,60.00,Sunday
94,19.166909768498308
2,1, 1, 1, 0, 4, 0.00,60.00,Sunday
7,6.510000000000002
95,507.16465141925417
158,0.014998470000000007
159,70.52420021465345
160,63.90485806820686
198,1000.0
199,57.50004068919184
200,65.46771155204623
201,0.014998470000000007
163,3600000.0000000006
2,1, 1, 1, 0, 5, 0.00, 2.00,Sunday
94,19.049116962141029
2,1, 1, 1, 0, 5, 2.00, 4.00,Sunday
94,19.1725983175018
2,1, 1, 1, 0, 5, 4.00, 6.00,Sunday
94,19.054782743757749
2,1, 1, 1, 0, 5, 6.00, 8.00,Sunday
94,19.178394892076697
2,1, 1, 1, 0, 5, 8.00,10.00,Sunday
94,19.060563546717878
2,1, 1, 1, 0, 5,10.00,12.00,Sunday
94,19.184322516259564
2,1, 1, 1, 0, 5,12.00,14.00,Sunday
94,19.066489660062297
2,1, 1, 1, 0, 5,14.00,16.00,Sunday
94,19.19039984416999
2,1, 1, 1, 0, 5,16.00,18.00,Sunday
94,19.07256605667846
2,1, 1, 1, 0, 5,18.00,20.00,Sunday
94,19.196622357188365
2,1, 1, 1, 0, 5,20.00,22.00,Sunday
94,19.078782961749508
2,1, 1, 1, 0, 5,22.00,24.00,Sunday
94,19.20297789710954
2,1, 1, 1, 0, 5,24.00,26.00,Sunday
94,19.08512723571743
2,1, 1, 1, 0, 5,26.00,28.00,Sunday
94,19.209453201630255
2,1, 1, 1, 0, 5,28.00,30.00,Sunday
94,19.091585826201656
2,1, 1, 1, 0, 5,30.00,32.00,Sunday
94,19.216035761128724
2,1, 1, 1, 0, 5,32.00,34.00,Sunday
94,19.098146850521045
2,1, 1, 1, 0, 5,34.00,36.00,Sunday
94,19.22271448742468
2,1, 1, 1, 0, 5,36.00,38.00,Sunday
94,19.104799982488858
2,1, 1, 1, 0, 5,38.00,40.00,Sunday
94,19.229479901155086
2,1, 1, 1, 0, 5,40.00,42.00,Sunday
94,19.111536490184166
2,1, 1, 1, 0, 5,42.00,44.00,Sunday
94,19.23632401548743
2,1, 1, 1, 0, 5,44.00,46.00,Sunday
94,19.11834901478296
2,1, 1, 1, 0, 5,46.00,48.00,Sunday
94,19.243240111251646
2,1, 1, 1, 0, 5,48.00,50.00,Sunday
94,19.12523136639231
2,1, 1, 1, 0, 5,50.00,52.00,Sunday
94,19.2502225148283
2,1, 1, 1, 0, 5,52.00,54.00,Sunday
94,19.132178286181337
2,1, 1, 1, 0, 5,54.00,56.00,Sunday
94,19.25726639278825
2,1, 1, 1, 0, 5,56.00,58.00,Sunday
94,19.13918527725934
2,1, 1, 1, 0, 5,58.00,60.00,Sunday
94,19.264367586975223
2,1, 1, 1, 0, 5, 0.00,60.00,Sunday
7,7.006666666666667
95,511.1946361317188
158,0.014998470000000007
159,71.00355617160817
160,64.33258839840282
198,1000.0
199,57.50832046200601
200,65.4759841814577
201,0.014998470000000007
163,3600000.0000000006
2,1, 1, 1, 0, 6, 0.00, 2.00,Sunday
94,19.14623369695023
2,1, 1, 1, 0, 6, 2.00, 4.00,Sunday
94,19.27147047271116
2,1, 1, 1, 0, 6, 4.00, 6.00,Sunday
94,19.153245663533214
2,1, 1, 1, 0, 6, 6.00, 8.00,Sunday
94,19.278520249006264
2,1, 1, 1, 0, 6, 8.00,10.00,Sunday
94,19.160210371445399
2,1, 1, 1, 0, 6,10.00,12.00,Sunday
94,19.285534614411814
2,1, 1, 1, 0, 6,12.00,14.00,Sunday
94,19.167150601238803
2,1, 1, 1, 0, 6,14.00,16.00,Sunday
94,19.29253003595692
2,1, 1, 1, 0, 6,16.00,18.00,Sunday
94,19.17407494494394
2,1, 1, 1, 0, 6,18.00,20.00,Sunday
94,19.299509445863536
2,1, 1, 1, 0, 6,20.00,22.00,Sunday
94,19.18098310359294
2,1, 1, 1, 0, 6,22.00,24.00,Sunday
94,19.3064709681497
2,1, 1, 1, 0, 6,24.00,26.00,Sunday
94,19.187872474292325
2,1, 1, 1, 0, 6,26.00,28.00,Sunday
94,19.313411769845417
2,1, 1, 1, 0, 6,28.00,30.00,Sunday
94,19.194740212596046
2,1, 1, 1, 0, 6,30.00,32.00,Sunday
94,19.32032918735997
2,1, 1, 1, 0, 6,32.00,34.00,Sunday
94,19.20158390229018
2,1, 1, 1, 0, 6,34.00,36.00,Sunday
94,19.327221110181904
2,1, 1, 1, 0, 6,36.00,38.00,Sunday
94,19.20840174356716
2,1, 1, 1, 0, 6,38.00,40.00,Sunday
94,19.334086122232529
2,1, 1, 1, 0, 6,40.00,42.00,Sunday
94,19.21519266639499
2,1, 1, 1, 0, 6,42.00,44.00,Sunday
94,19.34092347493025
2,1, 1, 1, 0, 6,44.00,46.00,Sunday
94,19.221956185705336
2,1, 1, 1, 0, 6,46.00,48.00,Sunday
94,19.34773294116025
2,1, 1, 1, 0, 6,48.00,50.00,Sunday
94,19.228692285226459
2,1, 1, 1, 0, 6,50.00,52.00,Sunday
94,19.35451470873279
2,1, 1, 1, 0, 6,52.00,54.00,Sunday
94,19.235401310704803
2,1, 1, 1, 0, 6,54.00,56.00,Sunday
94,19.361269269243878
2,1, 1, 1, 0, 6,56.00,58.00,Sunday
94,19.242083860029927
2,1, 1, 1, 0, 6,58.00,60.00,Sunday
94,19.367997327943895
2,1, 1, 1, 0, 6, 0.00,60.00,Sunday
7,7.3549999999999999
95,514.1970796299861
158,0.014998470000000007
159,71.41035305961242
160,64.70083466059059
198,1000.0
199,57.57315716412336
200,65.54077089379764
201,0.014998470000000007
163,3600000.0000000006
2,1, 1, 1, 0, 7, 0.00, 2.00,Sunday
94,19.248714107181333
2,1, 1, 1, 0, 7, 2.00, 4.00,Sunday
94,19.37444020234491
2,1, 1, 1, 0, 7, 4.00, 6.00,Sunday
94,19.254909661837865
2,1, 1, 1, 0, 7, 6.00, 8.00,Sunday
94,19.380533338772769
2,1, 1, 1, 0, 7, 8.00,10.00,Sunday
94,19.260858838000489
2,1, 1, 1, 0, 7,10.00,12.00,Sunday
94,19.386440845719379
2,1, 1, 1, 0, 7,12.00,14.00,Sunday
94,19.26664648967804
2,1, 1, 1, 0, 7,14.00,16.00,Sunday
94,19.392192329110846
2,1, 1, 1, 0, 7,16.00,18.00,Sunday
94,19.27227769353989
2,1, 1, 1, 0, 7,18.00,20.00,Sunday
94,19.39778568129474
2,1, 1, 1, 0, 7,20.00,22.00,Sunday
94,19.277749376106838
2,1, 1, 1, 0, 7,22.00,24.00,Sunday
94,19.403218151712577
2,1, 1, 1, 0, 7,24.00,26.00,Sunday
94,19.28305904808576
2,1, 1, 1, 0, 7,26.00,28.00,Sunday
94,19.408487535895227
2,1, 1, 1, 0, 7,28.00,30.00,Sunday
94,19.288204949538458
2,1, 1, 1, 0, 7,30.00,32.00,Sunday
94,19.413592752001688
2,1, 1, 1, 0, 7,32.00,34.00,Sunday
94,19.29318680609021
2,1, 1, 1, 0, 7,34.00,36.00,Sunday
94,19.00271197537061
2,1, 1, 1, 0, 7,36.00,38.00,Sunday
94,19.10438463122447
2,1, 1, 1, 0, 7,38.00,40.00,Sunday
94,19.032361611435876
2,1, 1, 1, 0, 7,40.00,42.00,Sunday
94,19.219161073245659
2,1, 1, 1, 0, 7,42.00,44.00,Sunday
94,19.14603317105916
2,1, 1, 1, 0, 7,44.00,46.00,Sunday
94,19.303786886566905
2,1, 1, 1, 0, 7,46.00,48.00,Sunday
94,19.203996040898944
2,1, 1, 1, 0, 7,48.00,50.00,Sunday
94,19.344220201831527
2,1, 1, 1, 0, 7,50.00,52.00,Sunday
94,19.234228357434878
2,1, 1, 1, 0, 7,52.00,54.00,Sunday
94,19.368252074040276
2,1, 1, 1, 0, 7,54.00,56.00,Sunday
94,19.253977666943187
2,1, 1, 1, 0, 7,56.00,58.00,Sunday
94,19.3847114878921
2,1, 1, 1, 0, 7,58.00,60.00,Sunday
94,19.267828624778315
2,1, 1, 1, 0, 7, 0.00,60.00,Sunday
7,7.5
95,482.7075836729799
158,0.013998572000000006
159,71.75970864239426
160,65.4594104784815
198,933.3333333333334
199,57.675349459988058
200,65.1117175492437
201,0.013998572000000006
163,3360000.0000000006
2,1, 1, 1, 0, 8, 0.00, 2.00,Sunday
94,19.39642726930083
2,1, 1, 1, 0, 8, 2.00, 4.00,Sunday
94,19.277620041662943
2,1, 1, 1, 0, 8, 4.00, 6.00,Sunday
94,19.40462066066158
2,1, 1, 1, 0, 8, 6.00, 8.00,Sunday
94,19.284448135741088
2,1, 1, 1, 0, 8, 8.00,10.00,Sunday
94,19.410417630333634
2,1, 1, 1, 0, 8,10.00,12.00,Sunday
94,19.289349538283227
2,1, 1, 1, 0, 8,12.00,14.00,Sunday
94,19.41464450773577
2,1, 1, 1, 0, 8,14.00,16.00,Sunday
94,19.292925769891853
2,1, 1, 1, 0, 8,16.00,18.00,Sunday
94,19.000215607360887
2,1, 1, 1, 0, 8,18.00,20.00,Sunday
94,19.1010302183386
2,1, 1, 1, 0, 8,20.00,22.00,Sunday
94,19.027288520480697
2,1, 1, 1, 0, 8,22.00,24.00,Sunday
94,19.213140866487199
2,1, 1, 1, 0, 8,24.00,26.00,Sunday
94,19.137909794903885
2,1, 1, 1, 0, 8,26.00,28.00,Sunday
94,19.294285529362939
2,1, 1, 1, 0, 8,28.00,30.00,Sunday
94,19.19198749888741
2,1, 1, 1, 0, 8,30.00,32.00,Sunday
94,19.330518689187575
2,1, 1, 1, 0, 8,32.00,34.00,Sunday
94,19.217700115243284
2,1, 1, 1, 0, 8,34.00,36.00,Sunday
94,19.349711103041665
2,1, 1, 1, 0, 8,36.00,38.00,Sunday
94,19.232280237235416
2,1, 1, 1, 0, 8,38.00,40.00,Sunday
94,19.360735141988728
2,1, 1, 1, 0, 8,40.00,42.00,Sunday
94,19.24040163689024
2,1, 1, 1, 0, 8,42.00,44.00,Sunday
94,19.366585889500727
2,1, 1, 1, 0, 8,44.00,46.00,Sunday
94,19.24438735501978
2,1, 1, 1, 0, 8,46.00,48.00,Sunday
94,19.36915421704077
2,1, 1, 1, 0, 8,48.00,50.00,Sunday
94,19.245741965705947
2,1, 1, 1, 0, 8,50.00,52.00,Sunday
94,19.369588690236705
2,1, 1, 1, 0, 8,52.00,54.00,Sunday
94,19.245324893309605
2,1, 1, 1, 0, 8,54.00,56.00,Sunday
94,19.368526321227497
2,1, 1, 1, 0, 8,56.00,58.00,Sunday
94,19.24361289603712
2,1, 1, 1, 0, 8,58.00,60.00,Sunday
94,19.366326711417199
2,1, 1, 1, 0, 8, 0.00,60.00,Sunday
7,7.086666666666667
95,520.2497372281676
158,0.014998470000000007
159,72.06202612833467
160,65.27204159486979
198,1000.0
199,57.79610764170139
200,65.76355184307897
201,0.014998470000000007
163,3600000.0000000006
2,1, 1, 1, 0, 9, 0.00, 2.00,Sunday
94,19.240909008616847
2,1, 1, 1, 0, 9, 2.00, 4.00,Sunday
94,19.363280704597263
2,1, 1, 1, 0, 9, 4.00, 6.00,Sunday
94,19.23748766708623
2,1, 1, 1, 0, 9, 6.00, 8.00,Sunday
94,19.359590246619825
2,1, 1, 1, 0, 9, 8.00,10.00,Sunday
94,19.233453606158727
2,1, 1, 1, 0, 9,10.00,12.00,Sunday
94,19.355306759413219
2,1, 1, 1, 0, 9,12.00,14.00,Sunday
94,19.22884296749432
2,1, 1, 1, 0, 9,14.00,16.00,Sunday
94,19.350467121893517
2,1, 1, 1, 0, 9,16.00,18.00,Sunday
94,19.223696164893107
2,1, 1, 1, 0, 9,18.00,20.00,Sunday
94,19.34511316420724
2,1, 1, 1, 0, 9,20.00,22.00,Sunday
94,19.218054582567829
2,1, 1, 1, 0, 9,22.00,24.00,Sunday
94,19.3392845734065
2,1, 1, 1, 0, 9,24.00,26.00,Sunday
94,19.211956024798277
2,1, 1, 1, 0, 9,26.00,28.00,Sunday
94,19.333017093886779
2,1, 1, 1, 0, 9,28.00,30.00,Sunday
94,19.205434389059787
2,1, 1, 1, 0, 9,30.00,32.00,Sunday
94,19.326342724873216
2,1, 1, 1, 0, 9,32.00,34.00,Sunday
94,19.19851998251472
2,1, 1, 1, 0, 9,34.00,36.00,Sunday
94,19.31929004332108
2,1, 1, 1, 0, 9,36.00,38.00,Sunday
94,19.191239857044168
2,1, 1, 1, 0, 9,38.00,40.00,Sunday
94,19.311884571492766
2,1, 1, 1, 0, 9,40.00,42.00,Sunday
94,19.183618205297518
2,1, 1, 1, 0, 9,42.00,44.00,Sunday
94,19.3041491727879
2,1, 1, 1, 0, 9,44.00,46.00,Sunday
94,19.175676744221904
2,1, 1, 1, 0, 9,46.00,48.00,Sunday
94,19.296104422652044
2,1, 1, 1, 0, 9,48.00,50.00,Sunday
94,19.16743506982033
2,1, 1, 1, 0, 9,50.00,52.00,Sunday
94,19.28776893695875
2,1, 1, 1, 0, 9,52.00,54.00,Sunday
94,19.158910958516385
2,1, 1, 1, 0, 9,54.00,56.00,Sunday
94,19.27915964505886
2,1, 1, 1, 0, 9,56.00,58.00,Sunday
94,19.150120615573909
2,1, 1, 1, 0, 9,58.00,60.00,Sunday
94,19.271708996779524
2,1, 1, 1, 0, 9, 0.00,60.00,Sunday
7,6.338333333333332
95,523.2213225985483
158,0.014998470000000007
159,72.34632807637695
160,65.51883633937321
198,1000.0
199,57.93736983058525
200,65.90470538045726
201,0.014998470000000007
163,3600000.0000000006
2,1, 1, 1, 0,10, 0.00, 2.00,Sunday
94,19.144952284129034
2,1, 1, 1, 0,10, 2.00, 4.00,Sunday
94,19.267969110116064
2,1, 1, 1, 0,10, 4.00, 6.00,Sunday
94,19.141572968510994
2,1, 1, 1, 0,10, 6.00, 8.00,Sunday
94,19.264613314191427
2,1, 1, 1, 0,10, 8.00,10.00,Sunday
94,19.13808628297656
2,1, 1, 1, 0,10,10.00,12.00,Sunday
94,19.261166528052283
2,1, 1, 1, 0,10,12.00,14.00,Sunday
94,19.13466312478373
2,1, 1, 1, 0,10,14.00,16.00,Sunday
94,19.257908995161075
2,1, 1, 1, 0,10,16.00,18.00,Sunday
94,19.13149815365557
2,1, 1, 1, 0,10,18.00,20.00,Sunday
94,19.254935943502987
2,1, 1, 1, 0,10,20.00,22.00,Sunday
94,19.128625202981774
2,1, 1, 1, 0,10,22.00,24.00,Sunday
94,19.252254077981708
2,1, 1, 1, 0,10,24.00,26.00,Sunday
94,19.12604460223842
2,1, 1, 1, 0,10,26.00,28.00,Sunday
94,19.249866379999099
2,1, 1, 1, 0,10,28.00,30.00,Sunday
94,19.123760552545865
2,1, 1, 1, 0,10,30.00,32.00,Sunday
94,19.24798412773185
2,1, 1, 1, 0,10,32.00,34.00,Sunday
94,19.122433744955765
2,1, 1, 1, 0,10,34.00,36.00,Sunday
94,19.24744046832856
2,1, 1, 1, 0,10,36.00,38.00,Sunday
94,19.122610808552154
2,1, 1, 1, 0,10,38.00,40.00,Sunday
94,19.248380950255375
2,1, 1, 1, 0,10,40.00,42.00,Sunday
94,19.12419118436048
2,1, 1, 1, 0,10,42.00,44.00,Sunday
94,19.250637963680356
2,1, 1, 1, 0,10,44.00,46.00,Sunday
94,19.127671406452536
2,1, 1, 1, 0,10,46.00,48.00,Sunday
94,19.255834563179943
2,1, 1, 1, 0,10,48.00,50.00,Sunday
94,19.13400579404924
2,1, 1, 1, 0,10,50.00,52.00,Sunday
94,19.26289816447971
2,1, 1, 1, 0,10,52.00,54.00,Sunday
94,19.141555754834227
2,1, 1, 1, 0,10,54.00,56.00,Sunday
94,19.27095608656251
2,1, 1, 1, 0,10,56.00,58.00,Sunday
94,19.15009678963237
2,1, 1, 1, 0,10,58.00,60.00,Sunday
94,19.28003844236738
2,1, 1, 1, 0,10, 0.00,60.00,Sunday
7,5.586666666666667
95,526.5265206492985
158,0.014998470000000007
159,72.61032151662744
160,65.74043317404069
198,1000.0
199,58.08767384668554
200,66.0548948519341
201,0.014998470000000007
163,3600000.0000000006
2,1, 1, 1, 0,11, 0.00, 2.00,Sunday
94,19.15982887646659
2,1, 1, 1, 0,11, 2.00, 4.00,Sunday
94,19.29059765498009
2,1, 1, 1, 0,11, 4.00, 6.00,Sunday
94,19.171247687870769
2,1, 1, 1, 0,11, 6.00, 8.00,Sunday
94,19.302813946876097
2,1, 1, 1, 0,11, 8.00,10.00,Sunday
94,19.184180601162983
2,1, 1, 1, 0,11,10.00,12.00,Sunday
94,19.31638126009338
2,1, 1, 1, 0,11,12.00,14.00,Sunday
94,19.198307696034108
2,1, 1, 1, 0,11,14.00,16.00,Sunday
94,19.33102769741907
2,1, 1, 1, 0,11,16.00,18.00,Sunday
94,19.21345196340446
2,1, 1, 1, 0,11,18.00,20.00,Sunday
94,19.34657595857397
2,1, 1, 1, 0,11,20.00,22.00,Sunday
94,19.2293399372115
2,1, 1, 1, 0,11,22.00,24.00,Sunday
94,19.362728308525239
2,1, 1, 1, 0,11,24.00,26.00,Sunday
94,19.245755427547409
2,1, 1, 1, 0,11,26.00,28.00,Sunday
94,19.37936766616432
2,1, 1, 1, 0,11,28.00,30.00,Sunday
94,19.262631204124629
2,1, 1, 1, 0,11,30.00,32.00,Sunday
94,19.396411828250959
2,1, 1, 1, 0,11,32.00,34.00,Sunday
94,19.27982277155242
2,1, 1, 1, 0,11,34.00,36.00,Sunday
94,19.41458647311671
2,1, 1, 1, 0,11,36.00,38.00,Sunday
94,19.299648754891206
2,1, 1, 1, 0,11,38.00,40.00,Sunday
94,19.011545648229516
2,1, 1, 1, 0,11,40.00,42.00,Sunday
94,19.122512976099335
2,1, 1, 1, 0,11,42.00,44.00,Sunday
94,19.0566034217063
2,1, 1, 1, 0,11,44.00,46.00,Sunday
94,19.25416618691233
2,1, 1, 1, 0,11,46.00,48.00,Sunday
94,19.187404797947346
2,1, 1, 1, 0,11,48.00,50.00,Sunday
94,19.35641487179807
2,1, 1, 1, 0,11,50.00,52.00,Sunday
94,19.26418014288899
2,1, 1, 1, 0,11,52.00,54.00,Sunday
94,19.41606756717857
2,1, 1, 1, 0,11,54.00,56.00,Sunday
94,19.313468371801048
2,1, 1, 1, 0,11,56.00,58.00,Sunday
94,19.034451139527098
2,1, 1, 1, 0,11,58.00,60.00,Sunday
94,19.15252757815129
2,1, 1, 1, 0,11, 0.00,60.00,Sunday
7,5.2
95,493.0609353476391
158,0.013998572000000006
159,72.85269351687751
160,66.41806151126807
198,933.3333333333334
199,58.24223481639956
200,65.67819997303411
201,0.013998572000000006
163,3360000.0000000006
2,1, 1, 1, 0,12, 0.00, 2.00,Sunday
94,19.092322544742463
2,1, 1, 1, 0,12, 2.00, 4.00,Sunday
94,19.2944591541386
2,1, 1, 1, 0,12, 4.00, 6.00,Sunday
94,19.231381769983906
2,1, 1, 1, 0,12, 6.00, 8.00,Sunday
94,19.402367131706329
2,1, 1, 1, 0,12, 8.00,10.00,Sunday
94,19.31079465786285
2,1, 1, 1, 0,12,10.00,12.00,Sunday
94,19.038073999412249
2,1, 1, 1, 0,12,12.00,14.00,Sunday
94,19.160308064085208
2,1, 1, 1, 0,12,14.00,16.00,Sunday
94,19.103746438497408
2,1, 1, 1, 0,12,16.00,18.00,Sunday
94,19.30934324317985
2,1, 1, 1, 0,12,18.00,20.00,Sunday
94,19.249053261367476
2,1, 1, 1, 0,12,20.00,22.00,Sunday
94,19.422246151712117
2,1, 1, 1, 0,12,22.00,24.00,Sunday
94,19.332219895166369
2,1, 1, 1, 0,12,24.00,26.00,Sunday
94,19.060482390782626
2,1, 1, 1, 0,12,26.00,28.00,Sunday
94,19.183426998337536
2,1, 1, 1, 0,12,28.00,30.00,Sunday
94,19.126520701676257
2,1, 1, 1, 0,12,30.00,32.00,Sunday
94,19.331162060484485
2,1, 1, 1, 0,12,32.00,34.00,Sunday
94,19.269639180151857
2,1, 1, 1, 0,12,34.00,36.00,Sunday
94,19.01599191149725
2,1, 1, 1, 0,12,36.00,38.00,Sunday
94,19.149668689077108
2,1, 1, 1, 0,12,38.00,40.00,Sunday
94,19.099253359223355
2,1, 1, 1, 0,12,40.00,42.00,Sunday
94,19.308733867239377
2,1, 1, 1, 0,12,42.00,44.00,Sunday
94,19.250900320012446
2,1, 1, 1, 0,12,44.00,46.00,Sunday
94,18.999941114855007
2,1, 1, 1, 0,12,46.00,48.00,Sunday
94,19.135817247815699
2,1, 1, 1, 0,12,48.00,50.00,Sunday
94,19.087013352034707
2,1, 1, 1, 0,12,50.00,52.00,Sunday
94,19.297927697953804
2,1, 1, 1, 0,12,52.00,54.00,Sunday
94,19.241323942729868
2,1, 1, 1, 0,12,54.00,56.00,Sunday
94,19.417972024066
2,1, 1, 1, 0,12,56.00,58.00,Sunday
94,19.33068878256725
2,1, 1, 1, 0,12,58.00,60.00,Sunday
94,19.060918049817859
2,1, 1, 1, 0,12, 0.00,60.00,Sunday
7,5.2
95,424.39122785192657
158,0.011998776000000005
159,73.05624027563563
160,67.5135057541639
198,800.0
199,58.38165802034014
200,64.7552583464726
201,0.011998776000000005
163,2880000.0000000006
2,1, 1, 1, 0,13, 0.00, 2.00,Sunday
94,19.18605695984995
2,1, 1, 1, 0,13, 2.00, 4.00,Sunday
94,19.131077230796728
2,1, 1, 1, 0,13, 4.00, 6.00,Sunday
94,19.33814556482682
2,1, 1, 1, 0,13, 6.00, 8.00,Sunday
94,19.278430521476428
2,1, 1, 1, 0,13, 8.00,10.00,Sunday
94,19.026028579702325
2,1, 1, 1, 0,13,10.00,12.00,Sunday
94,19.161415371877518
2,1, 1, 1, 0,13,12.00,14.00,Sunday
94,19.11268939646853
2,1, 1, 1, 0,13,14.00,16.00,Sunday
94,19.32441243197465
2,1, 1, 1, 0,13,16.00,18.00,Sunday
94,19.268755717939709
2,1, 1, 1, 0,13,18.00,20.00,Sunday
94,19.019886880732014
2,1, 1, 1, 0,13,20.00,22.00,Sunday
94,19.158499310659275
2,1, 1, 1, 0,13,22.00,24.00,Sunday
94,19.112414448038036
2,1, 1, 1, 0,13,24.00,26.00,Sunday
94,19.326460283670817
2,1, 1, 1, 0,13,26.00,28.00,Sunday
94,19.272698643721808
2,1, 1, 1, 0,13,28.00,30.00,Sunday
94,19.025419568680417
2,1, 1, 1, 0,13,30.00,32.00,Sunday
94,19.165503407638579
2,1, 1, 1, 0,13,32.00,34.00,Sunday
94,19.1205293758807
2,1, 1, 1, 0,13,34.00,36.00,Sunday
94,19.335404261732966
2,1, 1, 1, 0,13,36.00,38.00,Sunday
94,19.282074573317645
2,1, 1, 1, 0,13,38.00,40.00,Sunday
94,19.034925903448256
2,1, 1, 1, 0,13,40.00,42.00,Sunday
94,19.17514510731276
2,1, 1, 1, 0,13,42.00,44.00,Sunday
94,19.130199301477643
2,1, 1, 1, 0,13,44.00,46.00,Sunday
94,19.34515422488981
2,1, 1, 1, 0,13,46.00,48.00,Sunday
94,19.29184073379207
2,1, 1, 1, 0,13,48.00,50.00,Sunday
94,19.044664101531916
2,1, 1, 1, 0,13,50.00,52.00,Sunday
94,19.184865945524764
2,1, 1, 1, 0,13,52.00,54.00,Sunday
94,19.13985488330556
2,1, 1, 1, 0,13,54.00,56.00,Sunday
94,19.354777607288228
2,1, 1, 1, 0,13,56.00,58.00,Sunday
94,19.301339267624536
2,1, 1, 1, 0,13,58.00,60.00,Sunday
94,19.05397659329237
2,1, 1, 1, 0,13, 0.00,60.00,Sunday
7,5.2
95,425.9338191725075
158,0.011998776000000005
159,73.23723733848178
160,67.67311119694188
198,800.0
199,58.51091633825907
200,64.88443940065257
201,0.011998776000000005
163,2880000.0000000006
2,1, 1, 1, 0,14, 0.00, 2.00,Sunday
94,19.547512943474023
2,1, 1, 1, 0,14, 2.00, 4.00,Sunday
94,20.339810071901085
2,1, 1, 1, 0,14, 4.00, 6.00,Sunday
94,20.984914145799338
2,1, 1, 1, 0,14, 6.00, 8.00,Sunday
94,21.445905423974879
2,1, 1, 1, 0,14, 8.00,10.00,Sunday
94,21.788574399103135
2,1, 1, 1, 0,14,10.00,12.00,Sunday
94,22.048068440386215
2,1, 1, 1, 0,14,12.00,14.00,Sunday
94,22.254363920932904
2,1, 1, 1, 0,14,14.00,16.00,Sunday
94,22.423911974139299
2,1, 1, 1, 0,14,16.00,18.00,Sunday
94,22.566892769662027
2,1, 1, 1, 0,14,18.00,20.00,Sunday
94,22.690396602692166
2,1, 1, 1, 0,14,20.00,22.00,Sunday
94,22.799574104017958
2,1, 1, 1, 0,14,22.00,24.00,Sunday
94,22.898116445251945
2,1, 1, 1, 0,14,24.00,26.00,Sunday
94,22.98858774213491
2,1, 1, 1, 0,14,26.00,28.00,Sunday
94,23.072679241883109
2,1, 1, 1, 0,14,28.00,30.00,Sunday
94,23.151510238109837
2,1, 1, 1, 0,14,30.00,32.00,Sunday
94,23.225691969600257
2,1, 1, 1, 0,14,32.00,34.00,Sunday
94,23.295679868999103
2,1, 1, 1, 0,14,34.00,36.00,Sunday
94,23.361857396404777
2,1, 1, 1, 0,14,36.00,38.00,Sunday
94,23.42453811243828
2,1, 1, 1, 0,14,38.00,40.00,Sunday
94,23.48396519570007
2,1, 1, 1, 0,14,40.00,42.00,Sunday
94,23.540323194234124
2,1, 1, 1, 0,14,42.00,44.00,Sunday
94,23.5937549390535
2,1, 1, 1, 0,14,44.00,46.00,Sunday
94,23.64437617882311
2,1, 1, 1, 0,14,46.00,48.00,Sunday
94,23.69228573864289
2,1, 1, 1, 0,14,48.00,50.00,Sunday
94,23.737571597837144
2,1, 1, 1, 0,14,50.00,52.00,Sunday
94,23.780314300993415
2,1, 1, 1, 0,14,52.00,54.00,Sunday
94,23.820588900825248
2,1, 1, 1, 0,14,54.00,56.00,Sunday
94,23.85846614398928
2,1, 1, 1, 0,14,56.00,58.00,Sunday
94,23.894013249440488
2,1, 1, 1, 0,14,58.00,60.00,Sunday
94,23.927294439410948
2,1, 1, 1, 0,14, 0.00,60.00,Sunday
7,4.89
95,1475.3758677741694
158,0.049994899999999977
159,72.13360994706874
160,60.626765566755818
198,2000.0
199,59.123725078097489
200,68.683445800056
201,0.049994899999999977
163,7200000.000000001
2,1, 1, 1, 0,15, 0.00, 2.00,Sunday
94,23.958379305316816
2,1, 1, 1, 0,15, 2.00, 4.00,Sunday
94,23.987339022636009
2,1, 1, 1, 0,15, 4.00, 6.00,Sunday
94,24.00921878348323
2,1, 1, 1, 0,15, 6.00, 8.00,Sunday
94,24.008825742627026
2,1, 1, 1, 0,15, 8.00,10.00,Sunday
94,24.009170866726519
2,1, 1, 1, 0,15,10.00,12.00,Sunday
94,24.009052035828856
2,1, 1, 1, 0,15,12.00,14.00,Sunday
94,24.008981907033467
2,1, 1, 1, 0,15,14.00,16.00,Sunday
94,24.009162898726367
2,1, 1, 1, 0,15,16.00,18.00,Sunday
94,24.009248172774734
2,1, 1, 1, 0,15,18.00,20.00,Sunday
94,24.008747560263726
2,1, 1, 1, 0,15,20.00,22.00,Sunday
94,24.00857099090436
2,1, 1, 1, 0,15,22.00,24.00,Sunday
94,24.00825761105759
2,1, 1, 1, 0,15,24.00,26.00,Sunday
94,24.00911023229193
2,1, 1, 1, 0,15,26.00,28.00,Sunday
94,24.008972507215316
2,1, 1, 1, 0,15,28.00,30.00,Sunday
94,24.008727863165047
2,1, 1, 1, 0,15,30.00,32.00,Sunday
94,24.00843847592768
2,1, 1, 1, 0,15,32.00,34.00,Sunday
94,24.008622983677257
2,1, 1, 1, 0,15,34.00,36.00,Sunday
94,24.008764886738093
2,1, 1, 1, 0,15,36.00,38.00,Sunday
94,24.00909610165379
2,1, 1, 1, 0,15,38.00,40.00,Sunday
94,24.009113025471849
2,1, 1, 1, 0,15,40.00,42.00,Sunday
94,24.008508713792645
2,1, 1, 1, 0,15,42.00,44.00,Sunday
94,24.00854809189733
2,1, 1, 1, 0,15,44.00,46.00,Sunday
94,24.00861417046461
2,1, 1, 1, 0,15,46.00,48.00,Sunday
94,24.009164832158289