Program Version,EnergyPlus, Version 8.9.0-40101eaafd, YMD=2018.12.10 15:43
1,5,Environment Title[],Latitude[deg],Longitude[deg],Time Zone[],Elevation[m]
2,8,Day of Simulation[],Month[],Day of Month[],DST Indicator[1=yes 0=no],Hour[],StartMinute[],EndMinute[],DayType
3,5,Cumulative Day of Simulation[],Month[],Day of Month[],DST Indicator[1=yes 0=no],DayType  ! When Daily Meters Requested
4,2,Cumulative Days of Simulation[],Month[]  ! When Monthly Meters Requested
5,1,Cumulative Days of Simulation[] ! When Run Period Meters Requested
6,1,Calendar Year of Simulation[] ! When Annual Meters Requested
163,1,DistrictHeating:Facility [J] !Hourly
End of Data Dictionary
1,ANNUAL SIM 1,  59.65,  17.95,   1.00,  61.00
2,1, 1,25, 0, 1, 0.00,60.00,Wednesday
163,6105614.469314045
2,1, 1,25, 0, 2, 0.00,60.00,Wednesday
163,6122328.035161477
2,1, 1,25, 0, 3, 0.00,60.00,Wednesday
163,6156544.873296943
2,1, 1,25, 0, 4, 0.00,60.00,Wednesday
163,6187105.4907963019
2,1, 1,25, 0, 5, 0.00,60.00,Wednesday
163,6208403.1306359949
2,1, 1,25, 0, 6, 0.00,60.00,Wednesday
163,6221906.076814838
2,1, 1,25, 0, 7, 0.00,60.00,Wednesday
163,6226744.912471655
2,1, 1,25, 0, 8, 0.00,60.00,Wednesday
163,6224065.143484954
2,1, 1,25, 0, 9, 0.00,60.00,Wednesday
163,6218806.198076344
2,1, 1,25, 0,10, 0.00,60.00,Wednesday
163,6210754.316647745
2,1, 1,25, 0,11, 0.00,60.00,Wednesday
163,6196306.005827379
2,1, 1,25, 0,12, 0.00,60.00,Wednesday
163,6174252.382359061
2,1, 1,25, 0,13, 0.00,60.00,Wednesday
163,6148202.527428703
2,1, 1,25, 0,14, 0.00,60.00,Wednesday
163,6124131.072394899
2,1, 1,25, 0,15, 0.00,60.00,Wednesday
163,6108220.36851963
2,1, 1,25, 0,16, 0.00,60.00,Wednesday
163,6103333.381086303
2,1, 1,25, 0,17, 0.00,60.00,Wednesday
163,6107105.477420076
2,1, 1,25, 0,18, 0.00,60.00,Wednesday
163,6113168.682576831
2,1, 1,25, 0,19, 0.00,60.00,Wednesday
163,6116771.950332485
2,1, 1,25, 0,20, 0.00,60.00,Wednesday
163,6118548.716946747
2,1, 1,25, 0,21, 0.00,60.00,Wednesday
163,6118214.952437699
2,1, 1,25, 0,22, 0.00,60.00,Wednesday
163,6116058.214975495
2,1, 1,25, 0,23, 0.00,60.00,Wednesday
163,6112827.131014298
2,1, 1,25, 0,24, 0.00,60.00,Wednesday
163,6108479.486857747
2,2, 1,26, 0, 1, 0.00,60.00,Thursday
163,6103525.818092676
2,2, 1,26, 0, 2, 0.00,60.00,Thursday
163,6099013.043934893
2,2, 1,26, 0, 3, 0.00,60.00,Thursday
163,6099161.3447488839
2,2, 1,26, 0, 4, 0.00,60.00,Thursday
163,6106820.181880558
2,2, 1,26, 0, 5, 0.00,60.00,Thursday
163,6119451.246240406
2,2, 1,26, 0, 6, 0.00,60.00,Thursday
163,6136741.430668145
2,2, 1,26, 0, 7, 0.00,60.00,Thursday
163,6157298.832482964
2,2, 1,26, 0, 8, 0.00,60.00,Thursday
163,6179646.552294375
2,2, 1,26, 0, 9, 0.00,60.00,Thursday
163,6200476.608021467
2,2, 1,26, 0,10, 0.00,60.00,Thursday
163,6214869.441857495
2,2, 1,26, 0,11, 0.00,60.00,Thursday
163,6219207.019935417
2,2, 1,26, 0,12, 0.00,60.00,Thursday
163,6214193.562947117
2,2, 1,26, 0,13, 0.00,60.00,Thursday
163,6205741.775000132
2,2, 1,26, 0,14, 0.00,60.00,Thursday
163,5962207.177377459
2,2, 1,26, 0,15, 0.00,60.00,Thursday
163,5277575.178406223
2,2, 1,26, 0,16, 0.00,60.00,Thursday
163,6125003.146188432
2,2, 1,26, 0,17, 0.00,60.00,Thursday
163,6196166.267485343
2,2, 1,26, 0,18, 0.00,60.00,Thursday
163,6223423.108859654
2,2, 1,26, 0,19, 0.00,60.00,Thursday
163,6264948.527917821
2,2, 1,26, 0,20, 0.00,60.00,Thursday
163,6306417.863981332
2,2, 1,26, 0,21, 0.00,60.00,Thursday
163,6345957.946228408
2,2, 1,26, 0,22, 0.00,60.00,Thursday
163,6383525.801283676
2,2, 1,26, 0,23, 0.00,60.00,Thursday
163,6418144.946444144
2,2, 1,26, 0,24, 0.00,60.00,Thursday
163,6449859.990646019
2,3, 1,27, 0, 1, 0.00,60.00,Friday
163,6479500.463664204
2,3, 1,27, 0, 2, 0.00,60.00,Friday
163,6507587.844809869
2,3, 1,27, 0, 3, 0.00,60.00,Friday
163,6530535.785637065
2,3, 1,27, 0, 4, 0.00,60.00,Friday
163,6544039.393012496
2,3, 1,27, 0, 5, 0.00,60.00,Friday
163,6549892.991721818
2,3, 1,27, 0, 6, 0.00,60.00,Friday
163,6554649.700539582
2,3, 1,27, 0, 7, 0.00,60.00,Friday
163,6557020.822191933
2,3, 1,27, 0, 8, 0.00,60.00,Friday
163,6555046.290603506
2,3, 1,27, 0, 9, 0.00,60.00,Friday
163,6546141.7535394369
2,3, 1,27, 0,10, 0.00,60.00,Friday
163,6521877.518443683
2,3, 1,27, 0,11, 0.00,60.00,Friday
163,6470743.714134138
2,3, 1,27, 0,12, 0.00,60.00,Friday
163,6395887.028783512
2,3, 1,27, 0,13, 0.00,60.00,Friday
163,6313378.114933139
2,3, 1,27, 0,14, 0.00,60.00,Friday
163,6237738.246165025
2,3, 1,27, 0,15, 0.00,60.00,Friday
163,6189497.886548786
2,3, 1,27, 0,16, 0.00,60.00,Friday
163,6180161.991521223
2,3, 1,27, 0,17, 0.00,60.00,Friday
163,6198618.134220696
2,3, 1,27, 0,18, 0.00,60.00,Friday
163,6224210.051994503
2,3, 1,27, 0,19, 0.00,60.00,Friday
163,6241574.33302133
2,3, 1,27, 0,20, 0.00,60.00,Friday
163,6246900.719673118
2,3, 1,27, 0,21, 0.00,60.00,Friday
163,6240804.280796119
2,3, 1,27, 0,22, 0.00,60.00,Friday
163,6223021.9452365799
2,3, 1,27, 0,23, 0.00,60.00,Friday
163,6196431.147109449
2,3, 1,27, 0,24, 0.00,60.00,Friday
163,6167748.345702116
End of Data
 Number of Records Written=          72
