Program Version,EnergyPlus, Version 8.9.0-40101eaafd, YMD=2018.12.14 10:50
1,5,Environment Title[],Latitude[deg],Longitude[deg],Time Zone[],Elevation[m]
2,8,Day of Simulation[],Month[],Day of Month[],DST Indicator[1=yes 0=no],Hour[],StartMinute[],EndMinute[],DayType
3,5,Cumulative Day of Simulation[],Month[],Day of Month[],DST Indicator[1=yes 0=no],DayType  ! When Daily Report Variables Requested
4,2,Cumulative Days of Simulation[],Month[]  ! When Monthly Report Variables Requested
5,1,Cumulative Days of Simulation[] ! When Run Period Report Variables Requested
6,1,Calendar Year of Simulation[] ! When Annual Report Variables Requested
7,1,Environment,Site Outdoor Air Drybulb Temperature [C] !Hourly
94,1,ZONE ONE,Zone Air Temperature [C] !Hourly
95,1,RADIATOR,Baseboard Total Heating Rate [W] !Hourly
158,1,RADIATOR,Baseboard Hot Water Mass Flow Rate [kg/s] !Hourly
159,1,RADIATOR,Baseboard Water Inlet Temperature [C] !Hourly
160,1,RADIATOR,Baseboard Water Outlet Temperature [C] !Hourly
198,1,DISTRICT HEATING 1,District Heating Rate [W] !Hourly
199,1,DISTRICT HEATING 1,District Heating Inlet Temperature [C] !Hourly
200,1,DISTRICT HEATING 1,District Heating Outlet Temperature [C] !Hourly
201,1,DISTRICT HEATING 1,District Heating Mass Flow Rate [kg/s] !Hourly
163,1,DistrictHeating:Facility [J] !Hourly
End of Data Dictionary
1,ANNUAL SIM 1,  59.65,  17.95,   1.00,  61.00
2,1, 1, 1, 0, 1, 0.00,60.00,Sunday
7,4.0
94,17.48736065060123
95,0.0
158,0.0
159,59.99999999999998
160,59.99999999999998
198,0.0
199,49.80087643362516
200,49.80087643362516
201,0.0
163,0.0
2,1, 1, 1, 0, 2, 0.00,60.00,Sunday
7,5.3
94,21.580906148488404
95,975.2675883517803
158,0.03175182690124512
159,59.93732879690852
160,50.117432318847459
198,1311.8155313582586
199,49.9116820755795
200,59.86000024785045
201,0.03175182690124512
163,4722535.912889732
2,1, 1, 1, 0, 3, 0.00,60.00,Sunday
7,6.2
94,21.93547167932932
95,1209.1690936826087
158,0.04381877221679688
159,59.910554549112479
160,50.71673119148743
198,1783.3318989219638
199,50.157318974768447
200,59.89966388160171
201,0.04381877221679688
163,6419994.836119069
2,1, 1, 1, 0, 4, 0.00,60.00,Sunday
7,6.8
94,21.960125531143647
95,1017.7610696744653
158,0.03588501123046875
159,59.93950554113887
160,50.391355343263118
198,1451.03722864277
199,50.32938412186498
200,60.0
201,0.03588501123046875
163,5223734.023113972
2,1, 1, 1, 0, 5, 0.00,60.00,Sunday
7,7.2
94,21.970217125219678
95,919.0901262256523
158,0.031100343066406249
159,59.95939322595919
160,50.20508387888539
198,1256.8923338613158
199,50.334311938603708
200,60.0
201,0.031100343066406249
163,4524812.401900737
2,1, 1, 1, 0, 6, 0.00,60.00,Sunday
7,7.5
94,21.972749678213718
95,902.4543056649511
158,0.030343584326171875
159,59.97197410731104
160,50.18483694046865
198,1228.9297779719038
199,50.313520473470919
200,60.0
201,0.030343584326171875
163,4424147.200698854
2,1, 1, 1, 0, 7, 0.00,60.00,Sunday
7,7.5
94,21.973401664428218
95,897.8129290892016
158,0.03012388017578125
159,59.98051400182858
160,50.182610751192267
198,1222.4253805194426
199,50.29446796509814
200,60.0
201,0.03012388017578125
163,4400731.369869993
2,1, 1, 1, 0, 8, 0.00,60.00,Sunday
7,6.7
94,21.97250153518096
95,919.3988566633432
158,0.030978285205078127
159,59.986491955865108
160,50.22348550573996
198,1258.0568246197236
199,50.28705854010394
200,60.0
201,0.030978285205078127
163,4529004.568631005
2,1, 1, 1, 0, 9, 0.00,60.00,Sunday
7,6.0
94,21.97204766891196
95,948.8975651545866
158,0.03210121752929687
159,59.990744723049008
160,50.27521185819472
198,1302.4047366253849
199,50.29642995148123
200,60.0
201,0.03210121752929687
163,4688657.051851385
2,1, 1, 1, 0,10, 0.00,60.00,Sunday
7,5.2
94,21.970771890124749
95,960.9742666645357
158,0.032516214257812498
159,59.993718949335988
160,50.295756597831097
198,1316.8240859462205
199,50.314234567085517
200,60.0
201,0.032516214257812498
163,4740566.7094063949
2,1, 1, 1, 0,11, 0.00,60.00,Sunday
7,5.2
94,21.97345533190586
95,908.2995217297878
158,0.030416819042968749
159,59.995698501866787
160,50.20645993889026
198,1231.7475019467315
199,50.31464606026712
200,60.0
201,0.030416819042968749
163,4434291.007008234
2,1, 1, 1, 0,12, 0.00,60.00,Sunday
7,5.2
94,21.974957106282937
95,863.7804524332994
158,0.0289033015625
159,59.99698884882456
160,50.14442921594737
198,1173.1480872855461
199,50.29232502494999
200,60.0
201,0.0289033015625
163,4223333.1142279659
2,1, 1, 1, 0,13, 0.00,60.00,Sunday
7,5.2
94,21.976539092684435
95,841.3952442343364
158,0.02807330810546875
159,59.99786110207462
160,50.1110978556392
198,1142.8697644799377
199,50.26325621706005
200,60.0
201,0.02807330810546875
163,4114331.1521277765
2,1, 1, 1, 0,14, 0.00,60.00,Sunday
7,4.6
94,21.97608939053392
95,843.4329243955694
158,0.028195365966796876
159,59.99847383442514
160,50.1166648097474
198,1150.6752808507217
199,50.239189746134268
200,60.0
201,0.028195365966796876
163,4142431.0110625985
2,1, 1, 1, 0,15, 0.00,60.00,Sunday
7,4.1
94,21.971160849575278
95,961.0899017076833
158,0.032955622558593748
159,59.998940520898369
160,50.31891902949079
198,1342.5346096593944
199,50.256739681667529
200,60.0
201,0.032955622558593748
163,4833124.59477382
2,1, 1, 1, 0,16, 0.00,60.00,Sunday
7,3.5
94,21.9690716696714
95,1047.2173486989345
158,0.036080303808593758
159,59.99929895940542
160,50.45984770991923
198,1459.3404607945456
199,50.32632681340414
200,60.0
201,0.036080303808593758
163,5253625.658860365
2,1, 1, 1, 0,17, 0.00,60.00,Sunday
7,3.2
94,21.967116956298427
95,1086.1258466817692
158,0.037496175
159,59.99954896757656
160,50.52509676368604
198,1503.4856561932047
199,50.41012968836964
200,60.0
201,0.037496175
163,5412548.362295536
2,1, 1, 1, 0,18, 0.00,60.00,Sunday
7,2.9
94,21.96586152700616
95,1105.5501708802014
158,0.03822852216796875
159,59.999713616853458
160,50.55904834312766
198,1521.2356551380872
199,50.48287149305145
200,60.0
201,0.03822852216796875
163,5476448.358497114
2,1, 1, 1, 0,19, 0.00,60.00,Sunday
7,2.6
94,21.970779585769824
95,1120.4124142013118
158,0.038863223046875
159,59.99981975867082
160,50.58968813515048
198,1536.8270597875164
199,50.54247571260706
200,60.0
201,0.038863223046875
163,5532577.415235059
2,1, 1, 1, 0,20, 0.00,60.00,Sunday
7,2.5
94,21.971879839322484
95,1126.5728872637585
158,0.0391561619140625
159,59.99988712631669
160,50.60378099910123
198,1541.0327114891954
199,50.58754765921509
200,60.0
201,0.0391561619140625
163,5547717.7613611039
2,1, 1, 1, 0,21, 0.00,60.00,Sunday
7,2.4
94,21.972602707438573
95,1127.4556065116687
158,0.03920498505859375
159,59.99992947751183
160,50.606639399622348
198,1537.8007320805077
199,50.61898808878637
200,60.0
201,0.03920498505859375
163,5536082.635489829
2,1, 1, 1, 0,22, 0.00,60.00,Sunday
7,2.3
94,21.973839172664545
95,1127.656101786471
158,0.03920498505859375
159,59.99995594566195
160,50.606773881323139
198,1534.5224255432306
199,50.6389786744342
200,60.0
201,0.03920498505859375
163,5524280.731955631
2,1, 1, 1, 0,23, 0.00,60.00,Sunday
7,2.3
94,21.97218261539107
95,1129.4063120134688
158,0.03930263134765625
159,59.999972486757147
160,50.610870287252868
198,1536.2101156914664
199,50.65195918359937
200,60.0
201,0.03930263134765625
163,5530356.416489279
2,1, 1, 1, 0,24, 0.00,60.00,Sunday
7,2.2
94,21.973735319057409
95,1133.4883368287442
158,0.03949792392578125
159,59.99998285654526
160,50.62032947364314
198,1541.9462275362662
199,50.663461503078959
200,60.0
201,0.03949792392578125
163,5551006.419130558
End of Data
 Number of Records Written=         264
