Program Version,EnergyPlus, Version 8.9.0-40101eaafd, YMD=2018.12.16 20:54
1,5,Environment Title[],Latitude[deg],Longitude[deg],Time Zone[],Elevation[m]
2,8,Day of Simulation[],Month[],Day of Month[],DST Indicator[1=yes 0=no],Hour[],StartMinute[],EndMinute[],DayType
3,5,Cumulative Day of Simulation[],Month[],Day of Month[],DST Indicator[1=yes 0=no],DayType  ! When Daily Report Variables Requested
4,2,Cumulative Days of Simulation[],Month[]  ! When Monthly Report Variables Requested
5,1,Cumulative Days of Simulation[] ! When Run Period Report Variables Requested
6,1,Calendar Year of Simulation[] ! When Annual Report Variables Requested
7,1,Environment,Site Outdoor Air Drybulb Temperature [C] !Hourly
94,1,ZONE ONE,Zone Air Temperature [C] !Hourly
95,1,RADIATOR,Baseboard Total Heating Rate [W] !Hourly
158,1,RADIATOR,Baseboard Hot Water Mass Flow Rate [kg/s] !Hourly
159,1,RADIATOR,Baseboard Water Inlet Temperature [C] !Hourly
160,1,RADIATOR,Baseboard Water Outlet Temperature [C] !Hourly
198,1,DISTRICT HEATING 1,District Heating Rate [W] !Hourly
199,1,DISTRICT HEATING 1,District Heating Inlet Temperature [C] !Hourly
200,1,DISTRICT HEATING 1,District Heating Outlet Temperature [C] !Hourly
201,1,DISTRICT HEATING 1,District Heating Mass Flow Rate [kg/s] !Hourly
163,1,DistrictHeating:Facility [J] !Hourly
End of Data Dictionary
1,ANNUAL SIM 1,  59.65,  17.95,   1.00,  61.00
2,1, 1,27, 0, 1, 0.00,60.00,Friday
7,-17.0
94,15.451491466980878
95,0.0
158,0.0
159,59.99999959750046
160,59.99999959750046
198,0.0
199,50.135277133090429
200,50.135277133090429
201,0.0
163,0.0
2,1, 1,27, 0, 2, 0.00,60.00,Friday
7,-17.0
94,19.889603781065746
95,1493.5075805183005
158,0.049994900000000019
159,59.930332199804997
160,50.48305831686328
198,2000.0
199,50.19110955857752
200,59.75899977918581
201,0.049994900000000019
163,7200000.0
2,1, 1,27, 0, 3, 0.00,60.00,Friday
7,-17.0
94,19.980534784436246
95,1395.7190858606325
158,0.0499949
159,59.922696084100888
160,50.88178157808291
198,1986.315258499497
199,50.49785568336497
200,59.99999999999999
201,0.0499949
163,7150734.930598189
2,1, 1,27, 0, 4, 0.00,60.00,Friday
7,-17.0
94,19.265637617128559
95,1377.984022021147
158,0.049994899999999998
159,59.95757471143892
160,50.56597228188508
198,1958.626416069984
199,50.63043253270237
200,60.0
201,0.049994899999999998
163,7051055.097851943
2,1, 1,27, 0, 5, 0.00,60.00,Friday
7,-16.9
94,19.052279236449018
95,1423.8901825004718
158,0.0499949
159,59.97671650797304
160,50.4409617516035
198,1966.7247359040618
199,50.59165734517932
200,59.99999999999999
201,0.0499949
163,7080209.049254622
2,1, 1,27, 0, 6, 0.00,60.00,Friday
7,-16.7
94,19.055533670551637
95,1425.79838071372
158,0.0499949
159,59.9872217486467
160,50.462588210698218
198,1973.6442949901189
199,50.55852589768894
200,60.00000000000001
201,0.0499949
163,7105119.4619644279
2,1, 1,27, 0, 7, 0.00,60.00,Friday
7,-16.6
94,19.075326184018708
95,1426.0657486577222
158,0.0499949
159,59.992987146968378
160,50.46777417557675
198,1976.2555740106059
199,50.54602281321299
200,60.0
201,0.0499949
163,7114520.066438181
2,1, 1,27, 0, 8, 0.00,60.00,Friday
7,-15.8
94,19.15457097641854
95,1424.8948021976523
158,0.0499949
159,59.996151264654027
160,50.474809981484
198,1977.1041892817045
199,50.54195954568406
200,60.0
201,0.0499949
163,7117575.081414136
2,1, 1,27, 0, 9, 0.00,60.00,Friday
7,-15.0
94,19.331801846830755
95,1422.5435850521817
158,0.0499949
159,59.99788776925788
160,50.494582339935977
198,1976.2471850940692
199,50.546062980294518
200,60.0
201,0.0499949
163,7114489.866338649
2,1, 1,27, 0,10, 0.00,60.00,Friday
7,-14.2
94,19.747139628584017
95,1422.5069760254264
158,0.0499949
159,59.99884078319061
160,50.56930837310048
198,1971.8361307815749
199,50.5671835544786
200,60.0
201,0.0499949
163,7098610.070813669
2,1, 1,27, 0,11, 0.00,60.00,Friday
7,-13.1
94,20.41802128499167
95,1430.1254361447254
158,0.0499949
159,59.99936380832625
160,50.700931323173147
198,1959.4645439107744
199,50.62641950295153
200,60.0
201,0.0499949
163,7054072.358078787
2,1, 1,27, 0,12, 0.00,60.00,Friday
7,-12.1
94,20.905768738611934
95,1400.1873686380288
158,0.0499949
159,59.999650850606659
160,50.83878545466558
198,1938.7087627263315
199,50.72579803044455
200,60.0
201,0.0499949
163,6979351.545814794
2,1, 1,27, 0,13, 0.00,60.00,Friday
7,-11.0
94,21.30692151470911
95,1377.3942605051593
158,0.0499949
159,59.9998083827502
160,50.94320884855462
198,1916.2756808927065
199,50.83320536498984
200,60.0
201,0.0499949
163,6898592.451213744
2,1, 1,27, 0,14, 0.00,60.00,Friday
7,-10.7
94,21.38261549065898
95,1345.2267950835226
158,0.0499949
159,59.999894838223628
160,51.0108905986426
198,1895.3130479021509
199,50.93357040637798
200,60.0
201,0.0499949
163,6823126.972447743
2,1, 1,27, 0,15, 0.00,60.00,Friday
7,-10.5
94,21.219652514340056
95,1340.0265490403149
158,0.0499949
159,59.999942285993459
160,51.01457542151381
198,1881.6737547329187
199,50.99887163071331
200,60.00000000000001
201,0.0499949
163,6774025.517038507
2,1, 1,27, 0,16, 0.00,60.00,Friday
7,-10.2
94,20.93324647465849
95,1345.8128923119073
158,0.0499949
159,59.999968325881649
160,50.97667767350387
198,1875.9950688327974
199,51.02605939283116
200,60.0
201,0.0499949
163,6753582.24779807
2,1, 1,27, 0,17, 0.00,60.00,Friday
7,-9.8
94,20.728631239320078
95,1356.0824956134204
158,0.0499949
159,59.999982616875289
160,50.91004852962563
198,1877.9383879587197
199,51.016755407969608
200,60.00000000000001
201,0.0499949
163,6760578.196651391
2,1, 1,27, 0,18, 0.00,60.00,Friday
7,-9.4
94,20.641955518100994
95,1364.0333470119135
158,0.0499949
159,59.999990459938889
160,50.862445278602518
198,1884.2984207480868
199,50.98630550747271
200,59.99999999999999
201,0.0499949
163,6783474.314693112
2,1, 1,27, 0,19, 0.00,60.00,Friday
7,-9.0
94,20.66472012820088
95,1366.8790565147492
158,0.0499949
159,59.99999476430345
160,50.84228113119451
198,1890.8535611993216
199,50.954921305094618
200,59.99999999999999
201,0.0499949
163,6807072.820317558
2,1, 1,27, 0,20, 0.00,60.00,Friday
7,-8.0
94,20.767568459855839
95,1366.746525151485
158,0.0499949
159,59.9999971265888
160,50.847579748722257
198,1895.032319935552
199,50.93491446372419
200,59.99999999999999
201,0.0499949
163,6822116.351767988
2,1, 1,27, 0,21, 0.00,60.00,Friday
7,-7.1
94,20.932532307848857
95,1363.5522064860913
158,0.0499949
159,59.9999984230385
160,50.87151119400745
198,1895.8611227066694
199,50.930946356283929
200,60.00000000000001
201,0.0499949
163,6825100.04174401
2,1, 1,27, 0,22, 0.00,60.00,Friday
7,-6.1
94,21.128188005279456
95,1357.8682172572421
158,0.0499949
159,59.99999913454518
160,50.90989504691808
198,1893.3120358721128
199,50.94315075859771
200,60.00000000000001
201,0.0499949
163,6815923.329139606
2,1, 1,27, 0,23, 0.00,60.00,Friday
7,-5.7
94,21.285381133901749
95,1351.1061170221417
158,0.0499949
159,59.99999952502833
160,50.955419943134717
198,1887.9258549483975
199,50.96893837749019
200,60.0
201,0.0499949
163,6796533.077814231
2,1, 1,27, 0,24, 0.00,60.00,Friday
7,-5.4
94,21.39710724681262
95,1345.1119563434825
158,0.0499949
159,59.999999739330018
160,50.99199534583805
198,1881.1431698229371
199,51.00141191038566
200,60.0
201,0.0499949
163,6772115.4113625739
End of Data
 Number of Records Written=         264
