Program Version,EnergyPlus, Version 8.9.0-40101eaafd, YMD=2018.12.12 09:41
1,5,Environment Title[],Latitude[deg],Longitude[deg],Time Zone[],Elevation[m]
2,8,Day of Simulation[],Month[],Day of Month[],DST Indicator[1=yes 0=no],Hour[],StartMinute[],EndMinute[],DayType
3,5,Cumulative Day of Simulation[],Month[],Day of Month[],DST Indicator[1=yes 0=no],DayType  ! When Daily Report Variables Requested
4,2,Cumulative Days of Simulation[],Month[]  ! When Monthly Report Variables Requested
5,1,Cumulative Days of Simulation[] ! When Run Period Report Variables Requested
6,1,Calendar Year of Simulation[] ! When Annual Report Variables Requested
7,1,Environment,Site Outdoor Air Drybulb Temperature [C] !Hourly
94,1,ZONE ONE,Zone Air Temperature [C] !Hourly
95,1,RADIATOR,Baseboard Total Heating Rate [W] !Hourly
158,1,RADIATOR,Baseboard Hot Water Mass Flow Rate [kg/s] !Hourly
159,1,RADIATOR,Baseboard Water Inlet Temperature [C] !Hourly
160,1,RADIATOR,Baseboard Water Outlet Temperature [C] !Hourly
198,1,DISTRICT HEATING 1,District Heating Rate [W] !Hourly
199,1,DISTRICT HEATING 1,District Heating Inlet Temperature [C] !Hourly
200,1,DISTRICT HEATING 1,District Heating Outlet Temperature [C] !Hourly
201,1,DISTRICT HEATING 1,District Heating Mass Flow Rate [kg/s] !Hourly
163,1,DistrictHeating:Facility [J] !Hourly
End of Data Dictionary
1,ANNUAL SIM 1,  59.65,  17.95,   1.00,  61.00
2,1, 1, 1, 0, 1, 0.00,60.00,Sunday
7,4.0
94,20.34543329029867
95,828.3742117983713
158,0.0270480220703125
159,59.99999999999999
160,49.64988828216998
198,1154.79917707783
199,49.78836736351635
200,60.0
201,0.0270480220703125
163,4157277.0374801887
2,1, 1, 1, 0, 2, 0.00,60.00,Sunday
7,5.3
94,20.320743023137739
95,771.8943088177831
158,0.0249943985534668
159,59.99999999999999
160,49.558563483541259
198,1070.4708648600574
199,49.756295161668969
200,60.0
201,0.0249943985534668
163,3853695.1134962069
2,1, 1, 1, 0, 3, 0.00,60.00,Sunday
7,6.2
94,20.304795691121244
95,726.612645566541
158,0.023435109375
159,59.99999999999999
160,49.49312436724607
198,1007.7850846873527
199,49.71446927168052
200,60.0
201,0.023435109375
163,3628026.3048744697
2,1, 1, 1, 0, 4, 0.00,60.00,Sunday
7,6.8
94,20.295240352261954
95,695.2735353600938
158,0.022361000195312499
159,59.99999999999999
160,49.45022627397366
198,965.5934212042657
199,49.6716790272577
200,60.0
201,0.022361000195312499
163,3476136.316335357
2,1, 1, 1, 0, 5, 0.00,60.00,Sunday
7,7.2
94,20.285694817471268
95,673.3209083089831
158,0.02162865302734375
159,59.99999999999999
160,49.42228559410763
198,937.5456487243838
199,49.63210896334698
200,60.00000000000001
201,0.02162865302734375
163,3375164.335407782
2,1, 1, 1, 0, 6, 0.00,60.00,Sunday
7,7.5
94,20.280744725810565
95,658.8361430311596
158,0.02114042158203125
159,59.99999999999999
160,49.40326406633119
198,919.4685000054737
199,49.59717212391419
200,59.99999999999999
201,0.02114042158203125
163,3310086.6000197057
2,1, 1, 1, 0, 7, 0.00,60.00,Sunday
7,7.5
94,20.2767514141321
95,653.0600687201814
158,0.02094512900390625
159,59.99999999999999
160,49.395456823190489
198,913.5652882865211
199,49.56757271530292
200,60.00000000000001
201,0.02094512900390625
163,3288835.037831476
2,1, 1, 1, 0, 8, 0.00,60.00,Sunday
7,6.7
94,20.287850517292278
95,678.4454612055259
158,0.02182394560546875
159,60.0
160,49.42405691722038
198,953.785361081958
199,49.54686333851571
200,60.0
201,0.02182394560546875
163,3433627.2998950488
2,1, 1, 1, 0, 9, 0.00,60.00,Sunday
7,6.0
94,20.30018012540348
95,709.8728936381517
158,0.022898054785156255
159,60.0
160,49.46486164466797
198,1001.5300660005049
199,49.53847922683155
200,60.00000000000001
201,0.022898054785156255
163,3605508.2376018178
2,1, 1, 1, 0,10, 0.00,60.00,Sunday
7,5.2
94,20.306545407971396
95,723.0215344498614
158,0.0233374630859375
159,60.0
160,49.484095277227599
198,1020.7046825705996
199,49.538935637297637
200,59.99999999999999
201,0.0233374630859375
163,3674536.8572541589
2,1, 1, 1, 0,11, 0.00,60.00,Sunday
7,5.2
94,20.28267714709914
95,662.4667549026082
158,0.021238067871093753
159,60.0
160,49.41209143893688
198,929.4140537781735
199,49.532962841038557
200,60.0
201,0.021238067871093753
163,3345890.5936014249
2,1, 1, 1, 0,12, 0.00,60.00,Sunday
7,5.2
94,20.25910423374785
95,615.1213549133618
158,0.019724550390624999
159,60.0
160,49.35685199952167
198,864.67735499046
199,49.514795978332937
200,60.0
201,0.019724550390624999
163,3112838.477965656
2,1, 1, 1, 0,13, 0.00,60.00,Sunday
7,5.2
94,20.253433897953199
95,593.9190285763824
158,0.018992203222656255
159,60.0
160,49.3282662855766
198,834.3374413190234
199,49.49256386819531
200,60.00000000000001
201,0.018992203222656255
163,3003614.788748484
2,1, 1, 1, 0,14, 0.00,60.00,Sunday
7,4.6
94,20.253963829736084
95,596.8640122106038
158,0.019114261083984377
159,60.0
160,49.330390296165237
198,841.2967749389782
199,49.472566660281838
200,60.0
201,0.019114261083984377
163,3028668.389780321
2,1, 1, 1, 0,15, 0.00,60.00,Sunday
7,4.1
94,20.29644265282545
95,724.698346985436
158,0.023630401953124999
159,60.0
160,49.48265779516357
198,1039.8361574485566
199,49.474940825346077
200,60.0
201,0.023630401953124999
163,3743410.1668148038
2,1, 1, 1, 0,16, 0.00,60.00,Sunday
7,3.5
94,20.34471943044725
95,820.6297599688718
158,0.0268527294921875
159,60.0
160,49.61987877548283
198,1177.2603910422226
199,49.51389923573926
200,60.00000000000001
201,0.0268527294921875
163,4238137.407752002
2,1, 1, 1, 0,17, 0.00,60.00,Sunday
7,3.2
94,20.363465484587186
95,857.9922662332436
158,0.02812213125
159,60.0
160,49.685317294569319
198,1226.0979431638507
199,49.57188865931475
200,60.0
201,0.02812213125
163,4413952.595389863
2,1, 1, 1, 0,18, 0.00,60.00,Sunday
7,2.9
94,20.36590295320037
95,876.5592536345468
158,0.0288056552734375
159,60.0
160,49.719281921043378
198,1249.043278028008
199,49.62884152110751
200,59.99999999999999
201,0.0288056552734375
163,4496555.800900829
2,1, 1, 1, 0,19, 0.00,60.00,Sunday
7,2.6
94,20.376072758055107
95,891.4644020956883
158,0.029342709863281255
159,59.99999999999999
160,49.743071026510659
198,1266.2478118922709
199,49.6784480892022
200,60.0
201,0.029342709863281255
163,4558492.122812175
2,1, 1, 1, 0,20, 0.00,60.00,Sunday
7,2.5
94,20.375354800243526
95,893.8723825599865
158,0.02944035615234375
159,59.99999999999999
160,49.74993968968599
198,1265.57579963824
199,49.718161222628307
200,60.0
201,0.02944035615234375
163,4556072.878697664
2,1, 1, 1, 0,21, 0.00,60.00,Sunday
7,2.4
94,20.374278227566685
95,895.2716817793518
158,0.029489179296875
159,59.99999999999999
160,49.7518755261564
198,1264.071790436385
199,49.747397171547607
200,60.0
201,0.029489179296875
163,4550658.445570987
2,1, 1, 1, 0,22, 0.00,60.00,Sunday
7,2.3
94,20.3754098164394
95,895.3148278033376
158,0.029489179296875
159,59.99999999999999
160,49.75159709209685
198,1261.5121515316876
199,49.76816799499624
200,60.00000000000001
201,0.029489179296875
163,4541443.745514075
2,1, 1, 1, 0,23, 0.00,60.00,Sunday
7,2.3
94,20.376719777138488
95,896.9294687718617
158,0.029538002441406254
159,60.0
160,49.75401337699533
198,1261.7575589185394
199,49.78310025962073
200,60.00000000000001
201,0.029538002441406254
163,4542327.212106742
2,1, 1, 1, 0,24, 0.00,60.00,Sunday
7,2.2
94,20.380592841031694
95,902.1578922903573
158,0.02973329501953125
159,60.0
160,49.762866773168038
198,1268.5763083212003
199,49.79536113182301
200,60.0
201,0.02973329501953125
163,4566874.709956321
End of Data
 Number of Records Written=         264
