Program Version,EnergyPlus, Version 8.9.0-40101eaafd, YMD=2019.01.07 11:27
1,5,Environment Title[],Latitude[deg],Longitude[deg],Time Zone[],Elevation[m]
2,8,Day of Simulation[],Month[],Day of Month[],DST Indicator[1=yes 0=no],Hour[],StartMinute[],EndMinute[],DayType
3,5,Cumulative Day of Simulation[],Month[],Day of Month[],DST Indicator[1=yes 0=no],DayType  ! When Daily Report Variables Requested
4,2,Cumulative Days of Simulation[],Month[]  ! When Monthly Report Variables Requested
5,1,Cumulative Days of Simulation[] ! When Run Period Report Variables Requested
6,1,Calendar Year of Simulation[] ! When Annual Report Variables Requested
7,1,Environment,Site Outdoor Air Drybulb Temperature [C] !Hourly
314,1,ZONE ONE,Zone Air Temperature [C] !Hourly
315,1,ERV_1_HX,Heat Exchanger Total Heating Rate [W] !Hourly
379,1,ERV_1_FANSUPPLY,Fan Electric Power [W] !Hourly
393,1,ERV_1_FANSUPPLY,Fan Air Mass Flow Rate [kg/s] !Hourly
394,1,ERV_1_FANEXHAUST,Fan Electric Power [W] !Hourly
396,1,ERV_1_FANEXHAUST,Fan Air Mass Flow Rate [kg/s] !Hourly
397,1,RADIATOR,Baseboard Total Heating Rate [W] !Hourly
448,1,RADIATOR,Baseboard Hot Water Mass Flow Rate [kg/s] !Hourly
449,1,RADIATOR,Baseboard Water Inlet Temperature [C] !Hourly
450,1,RADIATOR,Baseboard Water Outlet Temperature [C] !Hourly
587,1,DISTRICT HEATING 1,District Heating Rate [W] !Hourly
588,1,DISTRICT HEATING 1,District Heating Inlet Temperature [C] !Hourly
589,1,DISTRICT HEATING 1,District Heating Outlet Temperature [C] !Hourly
590,1,DISTRICT HEATING 1,District Heating Mass Flow Rate [kg/s] !Hourly
120,1,DistrictHeating:Facility [J] !Hourly
End of Data Dictionary
1,ANNUAL SIM 1,  59.65,  17.95,   1.00,  61.00
2,1, 1, 1, 0, 1, 0.00,60.00,Sunday
7,4.0
314,18.26282414077218
315,0.0
379,0.0
393,0.0
394,0.0
396,0.0
397,0.0
448,0.0
449,59.99929412747067
450,59.99929412747067
587,0.0
588,49.81568022908363
589,49.81568022908363
590,0.0
120,43200.0
2,1, 1, 1, 0, 2, 0.00,60.00,Sunday
7,5.3
314,18.17281208254691
315,0.0
379,0.0
393,0.0
394,0.0
396,0.0
397,0.0
448,0.0
449,59.99929412747067
450,59.99929412747067
587,0.0
588,49.81568022908363
589,49.81568022908363
590,0.0
120,43200.0
2,1, 1, 1, 0, 3, 0.00,60.00,Sunday
7,6.2
314,18.158779561549495
315,0.0
379,0.0
393,0.0
394,0.0
396,0.0
397,0.0
448,0.0
449,59.99929412747067
450,59.99929412747067
587,0.0
588,49.81568022908363
589,49.81568022908363
590,0.0
120,43200.0
2,1, 1, 1, 0, 4, 0.00,60.00,Sunday
7,6.8
314,18.13523077115096
315,0.0
379,0.0
393,0.0
394,0.0
396,0.0
397,0.0
448,0.0
449,59.99929412747067
450,59.99929412747067
587,0.0
588,49.81568022908363
589,49.81568022908363
590,0.0
120,43200.0
2,1, 1, 1, 0, 5, 0.00,60.00,Sunday
7,7.2
314,18.096293222055189
315,0.0
379,0.0
393,0.0
394,0.0
396,0.0
397,0.0
448,0.0
449,59.99929412747067
450,59.99929412747067
587,0.0
588,49.81568022908363
589,49.81568022908363
590,0.0
120,43200.0
2,1, 1, 1, 0, 6, 0.00,60.00,Sunday
7,7.5
314,21.853619236389734
315,0.0
379,0.0
393,0.0
394,0.0
396,0.0
397,817.1269332365385
448,0.02881960474330357
449,59.941528892390547
450,52.246725377878039
587,1192.1307185547814
588,49.8983923226923
589,57.71244063600953
590,0.02881960474330357
120,4334870.586797212
2,1, 1, 1, 0, 7, 0.00,60.00,Sunday
7,7.5
314,22.150814443040848
315,0.0
379,0.0
393,0.0
394,0.0
396,0.0
397,798.6894989571161
448,0.029996940000000004
449,59.95179358576821
450,49.97062722480918
587,1259.8030267904505
588,49.9550805462706
589,60.0
590,0.029996940000000004
120,4600090.896445622
2,1, 1, 1, 0, 8, 0.00,60.00,Sunday
7,6.7
314,21.947103074548264
315,0.0
379,0.0
393,0.0
394,0.0
396,0.0
397,791.5050393247709
448,0.029996940000000004
449,59.96636752602571
450,50.018909249780197
587,1255.767058819532
588,49.98727637315778
589,59.99999999999999
590,0.029996940000000004
120,4700761.411750315
2,1, 1, 1, 0, 9, 0.00,60.00,Sunday
7,6.0
314,21.74191696142263
315,0.0
379,0.0
393,0.0
394,0.0
396,0.0
397,794.2323944582853
448,0.029996940000000004
449,59.97653541912093
450,49.97604861121188
587,1252.9524802527812
588,50.00973349629155
589,60.0
590,0.029996940000000004
120,4777028.928910012
2,1, 1, 1, 0,10, 0.00,60.00,Sunday
7,5.2
314,19.60294726658613
315,0.0
379,0.0
393,0.0
394,0.0
396,0.0
397,0.0
448,0.0
449,59.9805061719038
450,59.9805061719038
587,0.0
588,50.015094080647717
589,50.015094080647717
590,0.0
120,252000.0
2,1, 1, 1, 0,11, 0.00,60.00,Sunday
7,5.2
314,19.185008764927426
315,0.0
379,0.0
393,0.0
394,0.0
396,0.0
397,407.51133593376178
448,0.014998470000000002
449,59.98175249922973
450,54.6108476458256
587,629.9828922326361
588,49.96858244205572
589,54.99169136760184
590,0.014998470000000002
120,2498338.41203749
2,1, 1, 1, 0,12, 0.00,60.00,Sunday
7,5.2
314,19.395468786952884
315,0.0
379,0.0
393,0.0
394,0.0
396,0.0
397,401.1722914066206
448,0.014998470000000002
449,59.98531999785952
450,54.671007612003368
587,636.0040390863235
588,49.85124457626676
589,54.922385839521009
590,0.014998470000000002
120,2541614.5407107647
2,1, 1, 1, 0,13, 0.00,60.00,Sunday
7,5.2
314,20.581266570445984
315,0.0
379,0.0
393,0.0
394,0.0
396,0.0
397,750.8049592748274
448,0.02682018072916667
449,59.98842937384591
450,51.462021901933749
587,1140.8438706314116
588,49.82631993693845
589,58.30471519181148
590,0.02682018072916667
120,4409437.934273082
2,1, 1, 1, 0,14, 0.00,60.00,Sunday
7,4.6
314,20.977027777043018
315,0.0
379,0.0
393,0.0
394,0.0
396,0.0
397,953.8489196711246
448,0.0385898134375
449,59.992191787899887
450,50.22908132414565
587,1624.581206366684
588,49.93468535880858
589,60.0
590,0.0385898134375
120,6114892.342920063
2,1, 1, 1, 0,15, 0.00,60.00,Sunday
7,4.1
314,20.448575309362629
315,0.0
379,0.0
393,0.0
394,0.0
396,0.0
397,767.1381351205965
448,0.029996940000000004
449,59.99479045725232
450,49.850626613544708
587,1255.803417993347
588,49.986986326255699
589,60.0
590,0.029996940000000004
120,4780092.30477605
2,1, 1, 1, 0,16, 0.00,60.00,Sunday
7,3.5
314,20.311194177371239
315,0.0
379,0.0
393,0.0
394,0.0
396,0.0
397,797.5530477823736
448,0.029996940000000004
449,59.99636542535529
450,49.75966911750706
587,1260.722896641861
588,49.94774252308941
589,60.0
590,0.029996940000000004
120,4761802.4279106999
2,1, 1, 1, 0,17, 0.00,60.00,Sunday
7,3.2
314,19.005508268738234
315,0.0
379,0.0
393,0.0
394,0.0
396,0.0
397,0.0
448,0.0
449,59.99698047991175
450,59.99698047991175
587,0.0
588,49.9269766909139
589,49.9269766909139
590,0.0
120,230400.0
2,1, 1, 1, 0,18, 0.00,60.00,Sunday
7,2.9
314,18.87286429656918
315,0.0
379,0.0
393,0.0
394,0.0
396,0.0
397,0.0
448,0.0
449,59.99698047991175
450,59.99698047991175
587,0.0
588,49.9269766909139
589,49.9269766909139
590,0.0
120,324000.0
2,1, 1, 1, 0,19, 0.00,60.00,Sunday
7,2.6
314,19.352442349271738
315,0.0
379,0.0
393,0.0
394,0.0
396,0.0
397,83.14857124398726
448,0.0029996940000000008
449,59.9970819428188
450,58.931721478925229
587,126.44813664741692
588,49.9095643971621
589,50.9177883720451
590,0.0029996940000000008
120,757613.2919307009
2,1, 1, 1, 0,20, 0.00,60.00,Sunday
7,2.5
314,20.57623319925566
315,0.0
379,0.0
393,0.0
394,0.0
396,0.0
397,381.0151857001442
448,0.013331973333333334
449,59.99732115340606
450,55.37436177185652
587,563.6724494075193
588,49.88640950223405
589,54.38081260584809
590,0.013331973333333334
120,2281220.8178670697
2,1, 1, 1, 0,21, 0.00,60.00,Sunday
7,2.4
314,19.365417996758994
315,0.0
379,0.0
393,0.0
394,0.0
396,0.0
397,0.0
448,0.0
449,59.9975179175446
450,59.9975179175446
587,0.0
588,49.87240030059439
589,49.87240030059439
590,0.0
120,216000.0
2,1, 1, 1, 0,22, 0.00,60.00,Sunday
7,2.3
314,19.10366752999053
315,0.0
379,0.0
393,0.0
394,0.0
396,0.0
397,0.0
448,0.0
449,59.9975179175446
450,59.9975179175446
587,0.0
588,49.87240030059439
589,49.87240030059439
590,0.0
120,244800.0
2,1, 1, 1, 0,23, 0.00,60.00,Sunday
7,2.3
314,18.721889302642148
315,0.0
379,0.0
393,0.0
394,0.0
396,0.0
397,0.0
448,0.0
449,59.9975179175446
450,59.9975179175446
587,0.0
588,49.87240030059439
589,49.87240030059439
590,0.0
120,187200.0
2,1, 1, 1, 0,24, 0.00,60.00,Sunday
7,2.2
314,18.470642885299698
315,0.0
379,0.0
393,0.0
394,0.0
396,0.0
397,0.0
448,0.0
449,59.9975179175446
450,59.9975179175446
587,0.0
588,49.87240030059439
589,49.87240030059439
590,0.0
120,86400.0
2,2, 1, 2, 0, 1, 0.00,60.00,Monday
7,2.2
314,17.97283928349199
315,0.0
379,0.0
393,0.0
394,0.0
396,0.0
397,0.0
448,0.0
449,59.9975179175446
450,59.9975179175446
587,0.0
588,49.87240030059439
589,49.87240030059439
590,0.0
120,43200.0
2,2, 1, 2, 0, 2, 0.00,60.00,Monday
7,2.2
314,17.804622346210278
315,0.0
379,0.0
393,0.0
394,0.0
396,0.0
397,0.0
448,0.0
449,59.9975179175446
450,59.9975179175446
587,0.0
588,49.87240030059439
589,49.87240030059439
590,0.0
120,43200.0
2,2, 1, 2, 0, 3, 0.00,60.00,Monday
7,2.1
314,17.70768821031036
315,0.0
379,0.0
393,0.0
394,0.0
396,0.0
397,0.0
448,0.0
449,59.9975179175446
450,59.9975179175446
587,0.0
588,49.87240030059439
589,49.87240030059439
590,0.0
120,43200.0
2,2, 1, 2, 0, 4, 0.00,60.00,Monday
7,2.1
314,17.641759984836879
315,0.0
379,0.0
393,0.0
394,0.0
396,0.0
397,0.0
448,0.0
449,59.9975179175446
450,59.9975179175446
587,0.0
588,49.87240030059439
589,49.87240030059439
590,0.0
120,43200.0
2,2, 1, 2, 0, 5, 0.00,60.00,Monday
7,2.1
314,17.56333791524037
315,0.0
379,0.0
393,0.0
394,0.0
396,0.0
397,0.0
448,0.0
449,59.9975179175446
450,59.9975179175446
587,0.0
588,49.87240030059439
589,49.87240030059439
590,0.0
120,43200.0
2,2, 1, 2, 0, 6, 0.00,60.00,Monday
7,2.0
314,21.717495583768206
315,0.0
379,0.0
393,0.0
394,0.0
396,0.0
397,1027.8487406073768
448,0.03532972933333334
449,59.93651959671822
450,50.11348017128867
587,1455.725857192315
588,49.952294841937959
589,59.85839432977202
590,0.03532972933333334
120,5283813.085892336
2,2, 1, 2, 0, 7, 0.00,60.00,Monday
7,2.0
314,21.956253668391633
315,0.0
379,0.0
393,0.0
394,0.0
396,0.0
397,1028.8734292551562
448,0.042964367187500008
449,59.89421274925036
450,50.527108635637549
587,1733.70641964791
588,50.1737455818995
589,59.84120008398028
590,0.042964367187500008
120,6442943.110732475
2,2, 1, 2, 0, 8, 0.00,60.00,Monday
7,2.0
314,21.682902393254158
315,0.0
379,0.0
393,0.0
394,0.0
396,0.0
397,792.2409337826977
448,0.029996940000000004
449,59.91328636877212
450,49.9461389650888
587,1229.1571832559719
588,50.19964050471556
589,60.00000000000001
590,0.029996940000000004
120,4777765.859721499
2,2, 1, 2, 0, 9, 0.00,60.00,Monday
7,1.9
314,18.502060905172458
315,0.0
379,0.0
393,0.0
394,0.0
396,0.0
397,259.668044903655
448,0.013634972727272727
449,59.93231102593618
450,54.97576174964334
587,565.2887035660011
588,50.102700174297428
589,54.60992996042485
590,0.013634972727272727
120,2337439.332837605
2,2, 1, 2, 0,10, 0.00,60.00,Monday
7,1.9
314,19.99456191454039
315,0.0
379,0.0
393,0.0
394,0.0
396,0.0
397,867.1102353005095
448,0.029996940000000004
449,59.948634089596009
450,49.367387110851897
587,1266.7657835146047
588,49.899536736710867
589,60.0
590,0.029996940000000004
120,4790756.820652577
2,2, 1, 2, 0,11, 0.00,60.00,Monday
7,1.9
314,20.28944630485565
315,0.0
379,0.0
393,0.0
394,0.0
396,0.0
397,812.7357246616937
448,0.029996940000000004
449,59.96416322034405
450,49.65844443331998
587,1276.7915890111979
588,49.8195578655615
589,60.0
590,0.029996940000000004
120,4790849.720440312
2,2, 1, 2, 0,12, 0.00,60.00,Monday
7,1.9
314,20.20755665141559
315,0.0
379,0.0
393,0.0
394,0.0
396,0.0
397,808.4102941743913
448,0.029996940000000004
449,59.974997527231419
450,49.66366775724782
587,1280.3156372877384
588,49.79144529173724
589,60.0
590,0.029996940000000004
120,4846736.294235858
2,2, 1, 2, 0,13, 0.00,60.00,Monday
7,1.9
314,20.225752630115485
315,0.0
379,0.0
393,0.0
394,0.0
396,0.0
397,806.0983077175019
448,0.029996940000000004
449,59.98255636665613
450,49.679386684761087
587,1282.3655596083627
588,49.7750923048627
589,60.0
590,0.029996940000000004
120,4911716.014590106
2,2, 1, 2, 0,14, 0.00,60.00,Monday
7,1.6
314,20.081279477145917
315,0.0
379,0.0
393,0.0
394,0.0
396,0.0
397,803.1080154144231
448,0.029996940000000004
449,59.98782998997531
450,49.713384868537278
587,1282.8329314110115
588,49.77136390392632
589,60.0
590,0.029996940000000004
120,4870198.553079641
2,2, 1, 2, 0,15, 0.00,60.00,Monday
7,1.3
314,20.07759487395762
315,0.0
379,0.0
393,0.0
394,0.0
396,0.0
397,853.9831555193857
448,0.03226233390625
449,59.99161499714069
450,49.79768081331811
587,1377.462345920977
588,49.78806152502144
589,60.0
590,0.03226233390625
120,5203664.4453155179
2,2, 1, 2, 0,16, 0.00,60.00,Monday
7,1.0
314,20.078344224884238
315,0.0
379,0.0
393,0.0
394,0.0
396,0.0
397,875.6674057177046
448,0.03327785531250001
449,59.99434107930783
450,49.85486697565597
587,1416.0370271186098
588,49.82246039094082
589,60.0
590,0.03327785531250001
120,5306533.2976269959
2,2, 1, 2, 0,17, 0.00,60.00,Monday
7,0.9
314,20.078014158328423
315,0.0
379,0.0
393,0.0
394,0.0
396,0.0
397,872.5753825447225
448,0.03319973828125
449,59.996202263402697
450,49.857221717942
587,1408.1937044699496
588,49.85503431513584
589,60.0
590,0.03319973828125
120,5299897.336091818
2,2, 1, 2, 0,18, 0.00,60.00,Monday
7,0.7
314,20.19877810180956
315,0.0
379,0.0
393,0.0
394,0.0
396,0.0
397,799.3732659896358
448,0.029996940000000004
449,59.997403992388829
450,49.71594938353125
587,1272.502352650656
588,49.85377451206468
589,60.0
590,0.029996940000000004
120,4941008.469542361
2,2, 1, 2, 0,19, 0.00,60.00,Monday
7,0.6
314,20.70822402489939
315,0.0
379,0.0
393,0.0
394,0.0
396,0.0
397,404.98508216318506
448,0.014998470000000002
449,59.99805557012216
450,54.87916574912735
587,637.1460328706896
588,49.839291089354649
589,54.919542390935749
590,0.014998470000000002
120,2646525.718334483
2,2, 1, 2, 0,20, 0.00,60.00,Monday
7,0.6
314,20.833268808373416
315,0.0
379,0.0
393,0.0
394,0.0
396,0.0
397,405.1764231028556
448,0.014998470000000002
449,59.998387931137759
450,54.89894660554065
587,636.9774888020147
588,49.84268822703595
589,54.92159499781057
590,0.014998470000000002
120,2581118.9596872527
2,2, 1, 2, 0,21, 0.00,60.00,Monday
7,0.6
314,19.3061904910572
315,0.0
379,0.0
393,0.0
394,0.0
396,0.0
397,0.0
448,0.0
449,59.99849531954897
450,59.99849531954897
587,0.0
588,49.84308602313046
589,49.84308602313046
590,0.0
120,259200.0
2,2, 1, 2, 0,22, 0.00,60.00,Monday
7,0.6
314,19.084004793413
315,0.0
379,0.0
393,0.0
394,0.0
396,0.0
397,0.0
448,0.0
449,59.99849531954897
450,59.99849531954897
587,0.0
588,49.843086023130457
589,49.843086023130457
590,0.0
120,324000.0
2,2, 1, 2, 0,23, 0.00,60.00,Monday
7,0.8
314,18.663950472266817
315,0.0
379,0.0
393,0.0
394,0.0
396,0.0
397,0.0
448,0.0
449,59.99849531954897
450,59.99849531954897
587,0.0
588,49.843086023130457
589,49.843086023130457
590,0.0
120,216000.0
2,2, 1, 2, 0,24, 0.00,60.00,Monday
7,0.9
314,18.37045065258641
315,0.0
379,0.0
393,0.0
394,0.0
396,0.0
397,0.0
448,0.0
449,59.99849531954897
450,59.99849531954897
587,0.0
588,49.843086023130457
589,49.843086023130457
590,0.0
120,57600.0
2,3, 1, 3, 0, 1, 0.00,60.00,Tuesday
7,1.1
314,17.92475650677881
315,0.0
379,0.0
393,0.0
394,0.0
396,0.0
397,0.0
448,0.0
449,59.99849531954897
450,59.99849531954897
587,0.0
588,49.843086023130457
589,49.843086023130457
590,0.0
120,43200.0
2,3, 1, 3, 0, 2, 0.00,60.00,Tuesday
7,0.9
314,17.774128588075248
315,0.0
379,0.0
393,0.0
394,0.0
396,0.0
397,0.0
448,0.0
449,59.99849531954897
450,59.99849531954897
587,0.0
588,49.843086023130457
589,49.843086023130457
590,0.0
120,43200.0
2,3, 1, 3, 0, 3, 0.00,60.00,Tuesday
7,0.6
314,17.678901586469647
315,0.0
379,0.0
393,0.0
394,0.0
396,0.0
397,0.0
448,0.0
449,59.99849531954897
450,59.99849531954897
587,0.0
588,49.843086023130457
589,49.843086023130457
590,0.0
120,43200.0
2,3, 1, 3, 0, 4, 0.00,60.00,Tuesday
7,0.4
314,17.56290507206231
315,0.0
379,0.0
393,0.0
394,0.0
396,0.0
397,0.0
448,0.0
449,59.99849531954897
450,59.99849531954897
587,0.0
588,49.843086023130457
589,49.843086023130457
590,0.0
120,43200.0
2,3, 1, 3, 0, 5, 0.00,60.00,Tuesday
7,0.6
314,17.485670108807704
315,0.0
379,0.0
393,0.0
394,0.0
396,0.0
397,0.0
448,0.0
449,59.99849531954897
450,59.99849531954897
587,0.0
588,49.843086023130457
589,49.843086023130457
590,0.0
120,43200.0
2,3, 1, 3, 0, 6, 0.00,60.00,Tuesday
7,0.9
314,21.60274950508343
315,0.0
379,0.0
393,0.0
394,0.0
396,0.0
397,1033.9909389495929
448,0.03532972933333334
449,59.93400964304926
450,50.084544123876529
587,1458.319993835957
588,49.92401613080437
589,59.85081313134723
590,0.03532972933333334
120,5293151.977809446
2,3, 1, 3, 0, 7, 0.00,60.00,Tuesday
7,1.1
314,21.939944643909365
315,0.0
379,0.0
393,0.0
394,0.0
396,0.0
397,1038.6386152403145
448,0.04312060125
449,59.886949796767968
450,50.51098301246823
587,1742.0957439939095
588,50.14589235633508
589,59.82663083604519
590,0.04312060125
120,6473144.678378074
2,3, 1, 3, 0, 8, 0.00,60.00,Tuesday
7,0.9
314,22.112739374252859
315,0.0
379,0.0
393,0.0
394,0.0
396,0.0
397,981.5359938073202
448,0.038824164531250007
449,59.91154512619374
450,50.36648608205569
587,1581.7532824295029
588,50.25580807233764
589,60.0
590,0.038824164531250007
120,6047111.816746211
2,3, 1, 3, 0, 9, 0.00,60.00,Tuesday
7,0.8
314,19.97388372411438
315,0.0
379,0.0
393,0.0
394,0.0
396,0.0
397,805.650849184025
448,0.03757429203125
449,59.92940606731296
450,51.856750967928707
587,1513.7371475731702
588,50.310705682267158
589,58.3443697549343
590,0.03757429203125
120,5751853.731263413
2,3, 1, 3, 0,10, 0.00,60.00,Tuesday
7,0.6
314,18.145030512980484
315,0.0
379,0.0
393,0.0
394,0.0
396,0.0
397,369.8504936835473
448,0.014998470000000002
449,59.94234391866848
450,54.48033301608466
587,614.8029150144989
588,50.24749921867158
589,55.14946922861482
590,0.014998470000000002
120,2443690.494052196
2,3, 1, 3, 0,11, 0.00,60.00,Tuesday
7,1.1
314,19.84815375632573
315,0.0
379,0.0
393,0.0
394,0.0
396,0.0
397,865.918322394988
448,0.030137550656250006
449,59.95782929097315
450,49.41400062180462
587,1262.2805963274413
588,49.981915153338928
589,60.0
590,0.030137550656250006
120,4738610.146778789
2,3, 1, 3, 0,12, 0.00,60.00,Tuesday
7,1.6
314,20.02186717522664
315,0.0
379,0.0
393,0.0
394,0.0
396,0.0
397,816.3405012208218
448,0.031012461406250005
449,59.9708403406936
450,49.597977162478759
587,1312.5226502288479
588,49.87673079421701
589,60.0
590,0.031012461406250005
120,4962681.540823853
2,3, 1, 3, 0,13, 0.00,60.00,Tuesday
7,2.1
314,20.191126253386615
315,0.0
379,0.0
393,0.0
394,0.0
396,0.0
397,809.0377508055503
448,0.029996940000000004
449,59.9797256193715
450,49.62590840461377
587,1277.4881714112603
588,49.814000988506979
589,60.00000000000001
590,0.029996940000000004
120,4894157.417080537
2,3, 1, 3, 0,14, 0.00,60.00,Tuesday
7,1.7
314,20.12306732622796
315,0.0
379,0.0
393,0.0
394,0.0
396,0.0
397,807.1695969282056
448,0.029996940000000004
449,59.98585504460974
450,49.66384213629941
587,1281.3777384995242
588,49.78297252159828
589,59.99999999999999
590,0.029996940000000004
120,4864959.858598287
2,3, 1, 3, 0,15, 0.00,60.00,Tuesday
7,1.4
314,20.076400621474975
315,0.0
379,0.0
393,0.0
394,0.0
396,0.0
397,834.1473100882196
448,0.031246812500000007
449,59.99020064668861
450,49.722027643730957
587,1335.6636523794734
588,49.776117025186177
589,60.0
590,0.031246812500000007
120,5053189.1485661049
2,3, 1, 3, 0,16, 0.00,60.00,Tuesday
7,1.0
314,20.074356803223926
315,0.0
379,0.0
393,0.0
394,0.0
396,0.0
397,857.5338911832457
448,0.0323404509375
449,59.99330737759812
450,49.77502619069349
587,1380.7029438605991
588,49.78876195693854
589,60.00000000000001
590,0.0323404509375
120,5179330.597898157
2,3, 1, 3, 0,17, 0.00,60.00,Tuesday
7,1.0
314,20.06962944853212
315,0.0
379,0.0
393,0.0
394,0.0
396,0.0
397,842.9406118325169
448,0.03179363171875001
449,59.99544649608176
450,49.75945547949085
587,1355.5147610428432
588,49.80263311833275
589,59.99999999999999
590,0.03179363171875001
120,5110253.139754236
2,3, 1, 3, 0,18, 0.00,60.00,Tuesday
7,1.0
314,20.32117386546513
315,0.0
379,0.0
393,0.0
394,0.0
396,0.0
397,802.375307995361
448,0.029996940000000004
449,59.9968585937468
450,49.68327940865513
587,1279.5804375471057
588,49.797310245156989
589,60.0
590,0.029996940000000004
120,4966489.575169581
2,3, 1, 3, 0,19, 0.00,60.00,Tuesday
7,1.0
314,20.815326851581316
315,0.0
379,0.0
393,0.0
394,0.0
396,0.0
397,405.7511179285915
448,0.014998470000000002
449,59.99764706230026
450,54.87813518928041
587,640.155819003149
588,49.7919593369981
589,54.89622073936832
590,0.014998470000000002
120,2657360.9484113368
2,3, 1, 3, 0,20, 0.00,60.00,Tuesday
7,1.0
314,20.551389726519117
315,0.0
379,0.0
393,0.0
394,0.0
396,0.0
397,393.33162625097938
448,0.014998470000000002
449,59.99795947609715
450,54.8198929626923
587,640.4518653593663
588,49.788570008523517
589,54.895193080817069
590,0.014998470000000002
120,2593626.7152937187
2,3, 1, 3, 0,21, 0.00,60.00,Tuesday
7,1.0
314,19.668118789967968
315,0.0
379,0.0
393,0.0
394,0.0
396,0.0
397,0.0
448,0.0
449,59.998179199260608
450,59.998179199260608
587,0.0
588,49.78060308667289
589,49.78060308667289
590,0.0
120,259200.0
2,3, 1, 3, 0,22, 0.00,60.00,Tuesday
7,1.0
314,19.39350913921814
315,0.0
379,0.0
393,0.0
394,0.0
396,0.0
397,0.0
448,0.0
449,59.998179199260608
450,59.998179199260608
587,0.0
588,49.78060308667289
589,49.78060308667289
590,0.0
120,324000.0
2,3, 1, 3, 0,23, 0.00,60.00,Tuesday
7,1.4
314,18.886299117613676
315,0.0
379,0.0
393,0.0
394,0.0
396,0.0
397,0.0
448,0.0
449,59.998179199260608
450,59.998179199260608
587,0.0
588,49.78060308667289
589,49.78060308667289
590,0.0
120,216000.0
2,3, 1, 3, 0,24, 0.00,60.00,Tuesday
7,1.7
314,18.592823058473205
315,0.0
379,0.0
393,0.0
394,0.0
396,0.0
397,0.0
448,0.0
449,59.998179199260608
450,59.998179199260608
587,0.0
588,49.78060308667289
589,49.78060308667289
590,0.0
120,57600.0
2,4, 1, 4, 0, 1, 0.00,60.00,Wednesday
7,2.1
314,18.171499372747303
315,0.0
379,0.0
393,0.0
394,0.0
396,0.0
397,0.0
448,0.0
449,59.998179199260608
450,59.998179199260608
587,0.0
588,49.78060308667289
589,49.78060308667289
590,0.0
120,43200.0
2,4, 1, 4, 0, 2, 0.00,60.00,Wednesday
7,1.4
314,17.961833375711636
315,0.0
379,0.0
393,0.0
394,0.0
396,0.0
397,0.0
448,0.0
449,59.998179199260608
450,59.998179199260608
587,0.0
588,49.78060308667289
589,49.78060308667289
590,0.0
120,43200.0
2,4, 1, 4, 0, 3, 0.00,60.00,Wednesday
7,0.8
314,17.842995669446375
315,0.0
379,0.0
393,0.0
394,0.0
396,0.0
397,0.0
448,0.0
449,59.998179199260608
450,59.998179199260608
587,0.0
588,49.78060308667289
589,49.78060308667289
590,0.0
120,43200.0
2,4, 1, 4, 0, 4, 0.00,60.00,Wednesday
7,0.1
314,17.734705239527256
315,0.0
379,0.0
393,0.0
394,0.0
396,0.0
397,0.0
448,0.0
449,59.998179199260608
450,59.998179199260608
587,0.0
588,49.78060308667289
589,49.78060308667289
590,0.0
120,43200.0
2,4, 1, 4, 0, 5, 0.00,60.00,Wednesday
7,-0.3
314,17.62182401151605
315,0.0
379,0.0
393,0.0
394,0.0
396,0.0
397,0.0
448,0.0
449,59.998179199260608
450,59.998179199260608
587,0.0
588,49.78060308667289
589,49.78060308667289
590,0.0
120,43200.0
2,4, 1, 4, 0, 6, 0.00,60.00,Wednesday
7,-0.7
314,21.717292918330334
315,0.0
379,0.0
393,0.0
394,0.0
396,0.0
397,1028.9582137754026
448,0.03532972933333334
449,59.927289133502558
450,50.105326977334808
587,1462.116184628352
588,49.87885063066127
589,59.835937659056977
590,0.03532972933333334
120,5306818.264662067
2,4, 1, 4, 0, 7, 0.00,60.00,Wednesday
7,-1.1
314,21.95636510768829
315,0.0
379,0.0
393,0.0
394,0.0
396,0.0
397,1035.3210085961691
448,0.043159659765625007
449,59.877069443960348
450,50.52121298940615
587,1745.0655503393623
588,50.12348848817767
589,59.81327128100676
590,0.043159659765625007
120,6483835.981221705
2,4, 1, 4, 0, 8, 0.00,60.00,Wednesday
7,-1.4
314,22.11257059882596
315,0.0
379,0.0
393,0.0
394,0.0
396,0.0
397,985.9025796252997
448,0.039058515625000008
449,59.90413409651693
450,50.36878172556575
587,1593.2465109102695
588,50.24388432348339
589,59.99999999999999
590,0.039058515625000008
120,6088487.43927697
2,4, 1, 4, 0, 9, 0.00,60.00,Wednesday
7,-1.8
314,19.938130263230837
315,0.0
379,0.0
393,0.0
394,0.0
396,0.0
397,880.9414803113812
448,0.04140202656249999
449,59.92232292426548
450,51.75692657566006
587,1663.856799911474
588,50.321835569143278
589,58.561843655459288
590,0.04140202656249999
120,6292284.4796813069
2,4, 1, 4, 0,10, 0.00,60.00,Wednesday
7,-2.1
314,20.09665213049003
315,0.0
379,0.0
393,0.0
394,0.0
396,0.0
397,1107.9717798601766
448,0.0439017715625
449,59.94831815246262
450,50.2361265908486
587,1772.9691167021062
588,50.34116421159554
589,60.00000000000001
590,0.0439017715625
120,6613088.820127582
2,4, 1, 4, 0,11, 0.00,60.00,Wednesday
7,-2.4
314,20.085152363517527
315,0.0
379,0.0
393,0.0
394,0.0
396,0.0
397,885.7319603353093
448,0.033434089375
449,59.96765812563528
450,49.78818849790267
587,1363.3345846064217
588,50.24735293363189
589,60.0
590,0.033434089375
120,5102404.5045831189
2,4, 1, 4, 0,12, 0.00,60.00,Wednesday
7,-2.6
314,19.790196919002939
315,0.0
379,0.0
393,0.0
394,0.0
396,0.0
397,801.739741215125
448,0.029996940000000004
449,59.97792408368323
450,49.671627259735149
587,1241.183096166293
588,50.10366420308122
589,59.99999999999999
590,0.029996940000000004
120,4705859.146198655
2,4, 1, 4, 0,13, 0.00,60.00,Wednesday
7,-2.9
314,19.63992054000599
315,0.0
379,0.0
393,0.0
394,0.0
396,0.0
397,802.9650324853412
448,0.029996940000000004
449,59.984598155809468
450,49.61452812900289
587,1256.2201514019278
588,49.98366195636908
589,60.0
590,0.029996940000000004
120,4817592.5450469399
2,4, 1, 4, 0,14, 0.00,60.00,Wednesday
7,-3.5
314,19.38832601963587
315,0.0
379,0.0
393,0.0
394,0.0
396,0.0
397,805.2418155219731
448,0.029996940000000004
449,59.989254497930428
450,49.583516835967568
587,1268.3554484758295
588,49.88685562145017
589,60.0
590,0.029996940000000004
120,4818079.6145129869
2,4, 1, 4, 0,15, 0.00,60.00,Wednesday
7,-4.2
314,19.16620767140316
315,0.0
379,0.0
393,0.0
394,0.0
396,0.0
397,813.6332955880788
448,0.029996940000000004
449,59.99250311759431
450,49.52326418563908
587,1278.5844994067775
588,49.80525519755368
589,60.0
590,0.029996940000000004
120,4847704.197864399
2,4, 1, 4, 0,16, 0.00,60.00,Wednesday
7,-4.8
314,19.085164795497048
315,0.0
379,0.0
393,0.0
394,0.0
396,0.0
397,853.0742379715863
448,0.03140304656250001
449,59.99480915626352
450,49.53441386447087
587,1347.0253034942878
588,49.74042913127585
589,60.0
590,0.03140304656250001
120,5058091.092579436
2,4, 1, 4, 0,17, 0.00,60.00,Wednesday
7,-5.1
314,19.087875979026334
315,0.0
379,0.0
393,0.0
394,0.0
396,0.0
397,868.2278518594655
448,0.03194986578125
449,59.996450781036489
450,49.54309323966833
587,1376.2211804322749
588,49.697436082746488
589,60.0
590,0.03194986578125
120,5184796.249556189
2,4, 1, 4, 0,18, 0.00,60.00,Wednesday
7,-5.5
314,19.243637849913179
315,0.0
379,0.0
393,0.0
394,0.0
396,0.0
397,822.4110728648136
448,0.029996940000000004
449,59.99755468302932
450,49.45745079279586
587,1297.2887340950235
588,49.656043863131419
589,60.0
590,0.029996940000000004
120,5030239.442742085
2,4, 1, 4, 0,19, 0.00,60.00,Wednesday
7,-5.8
314,19.5162533955843
315,0.0
379,0.0
393,0.0
394,0.0
396,0.0
397,233.4779266003489
448,0.008570554285714287
449,59.998083170690339
450,56.97673790846787
587,371.73190139996998
588,49.62502501409941
589,52.589040593815699
590,0.008570554285714287
120,1691034.845039892
2,4, 1, 4, 0,20, 0.00,60.00,Wednesday
7,-5.9
314,19.724096073420367
315,0.0
379,0.0
393,0.0
394,0.0
396,0.0
397,249.35859089186654
448,0.008570554285714287
449,59.9982711875187
450,56.97141937726869
587,372.1398202476457
588,49.614653883892717
589,52.5819236335992
590,0.008570554285714287
120,1627703.3528915249
2,4, 1, 4, 0,21, 0.00,60.00,Wednesday
7,-6.1
314,18.619997916122459
315,0.0
379,0.0
393,0.0
394,0.0
396,0.0
397,0.0
448,0.0
449,59.998346215514398
450,59.998346215514398
587,0.0
588,49.6044745264611
589,49.6044745264611
590,0.0
120,259200.0
2,4, 1, 4, 0,22, 0.00,60.00,Wednesday
7,-6.2
314,18.424303130977628
315,0.0
379,0.0
393,0.0
394,0.0
396,0.0
397,0.0
448,0.0
449,59.998346215514398
450,59.998346215514398
587,0.0
588,49.6044745264611
589,49.6044745264611
590,0.0
120,324000.0
2,4, 1, 4, 0,23, 0.00,60.00,Wednesday
7,-6.2
314,17.992064751793149
315,0.0
379,0.0
393,0.0
394,0.0
396,0.0
397,0.0
448,0.0
449,59.998346215514398
450,59.998346215514398
587,0.0
588,49.6044745264611
589,49.6044745264611
590,0.0
120,216000.0
2,4, 1, 4, 0,24, 0.00,60.00,Wednesday
7,-6.3
314,17.706432434395226
315,0.0
379,0.0
393,0.0
394,0.0
396,0.0
397,0.0
448,0.0
449,59.998346215514398
450,59.998346215514398
587,0.0
588,49.6044745264611
589,49.6044745264611
590,0.0
120,57600.0
2,5, 1, 5, 0, 1, 0.00,60.00,Thursday
7,-6.3
314,17.224683580835863
315,0.0
379,0.0
393,0.0
394,0.0
396,0.0
397,0.0
448,0.0
449,59.998346215514398
450,59.998346215514398
587,0.0
588,49.6044745264611
589,49.6044745264611
590,0.0
120,43200.0
2,5, 1, 5, 0, 2, 0.00,60.00,Thursday
7,-6.4
314,17.077952757273495
315,0.0
379,0.0
393,0.0
394,0.0
396,0.0
397,0.0
448,0.0
449,59.998346215514398
450,59.998346215514398
587,0.0
588,49.6044745264611
589,49.6044745264611
590,0.0
120,43200.0
2,5, 1, 5, 0, 3, 0.00,60.00,Thursday
7,-6.5
314,16.983283205473023
315,0.0
379,0.0
393,0.0
394,0.0
396,0.0
397,0.0
448,0.0
449,59.998346215514398
450,59.998346215514398
587,0.0
588,49.6044745264611
589,49.6044745264611
590,0.0
120,43200.0
2,5, 1, 5, 0, 4, 0.00,60.00,Thursday
7,-6.6
314,16.870569777176287
315,0.0
379,0.0
393,0.0
394,0.0
396,0.0
397,0.0
448,0.0
449,59.998346215514398
450,59.998346215514398
587,0.0
588,49.6044745264611
589,49.6044745264611
590,0.0
120,43200.0
2,5, 1, 5, 0, 5, 0.00,60.00,Thursday
7,-6.4
314,16.769142519635947
315,0.0
379,0.0
393,0.0
394,0.0
396,0.0
397,0.0
448,0.0
449,59.998346215514398
450,59.998346215514398
587,0.0
588,49.6044745264611
589,49.6044745264611
590,0.0
120,43200.0
2,5, 1, 5, 0, 6, 0.00,60.00,Thursday
7,-6.3
314,21.27773876524623
315,0.0
379,0.0
393,0.0
394,0.0
396,0.0
397,1239.9736530748078
448,0.04385155347098214
449,59.873577220525607
450,50.3605466920648
587,1806.5706940774546
588,49.789041417191359
589,59.67664384396377
590,0.04385155347098214
120,6546854.498678837
2,5, 1, 5, 0, 7, 0.00,60.00,Thursday
7,-6.1
314,21.39106715899406
315,0.0
379,0.0
393,0.0
394,0.0
396,0.0
397,1144.2617786059634
448,0.049994899999999998
449,59.81997132369938
450,50.701064202058137
587,2000.0
588,50.150461541391589
589,59.71838896968189
590,0.049994899999999998
120,7401600.0