Program Version,EnergyPlus, Version 8.9.0-40101eaafd, YMD=2019.01.02 22:39
1,5,Environment Title[],Latitude[deg],Longitude[deg],Time Zone[],Elevation[m]
2,8,Day of Simulation[],Month[],Day of Month[],DST Indicator[1=yes 0=no],Hour[],StartMinute[],EndMinute[],DayType
3,5,Cumulative Day of Simulation[],Month[],Day of Month[],DST Indicator[1=yes 0=no],DayType  ! When Daily Report Variables Requested
4,2,Cumulative Days of Simulation[],Month[]  ! When Monthly Report Variables Requested
5,1,Cumulative Days of Simulation[] ! When Run Period Report Variables Requested
6,1,Calendar Year of Simulation[] ! When Annual Report Variables Requested
7,1,Environment,Site Outdoor Air Drybulb Temperature [C] !Hourly
314,1,ZONE ONE,Zone Air Temperature [C] !Hourly
315,1,ERV_1_HX,Heat Exchanger Total Heating Rate [W] !Hourly
379,1,ERV_1_FANSUPPLY,Fan Electric Power [W] !Hourly
393,1,ERV_1_FANSUPPLY,Fan Air Mass Flow Rate [kg/s] !Hourly
394,1,ERV_1_FANEXHAUST,Fan Electric Power [W] !Hourly
396,1,ERV_1_FANEXHAUST,Fan Air Mass Flow Rate [kg/s] !Hourly
397,1,RADIATOR,Baseboard Total Heating Rate [W] !Hourly
448,1,RADIATOR,Baseboard Hot Water Mass Flow Rate [kg/s] !Hourly
449,1,RADIATOR,Baseboard Water Inlet Temperature [C] !Hourly
450,1,RADIATOR,Baseboard Water Outlet Temperature [C] !Hourly
587,1,DISTRICT HEATING 1,District Heating Rate [W] !Hourly
588,1,DISTRICT HEATING 1,District Heating Inlet Temperature [C] !Hourly
589,1,DISTRICT HEATING 1,District Heating Outlet Temperature [C] !Hourly
590,1,DISTRICT HEATING 1,District Heating Mass Flow Rate [kg/s] !Hourly
120,1,DistrictHeating:Facility [J] !Hourly
End of Data Dictionary
1,ANNUAL SIM 1,  59.65,  17.95,   1.00,  61.00
2,1, 1,27, 0, 1, 0.00,60.00,Friday
7,-17.0
314,16.520382927461904
315,0.0
379,0.0
393,0.0
394,0.0
396,0.0
397,0.0
448,0.0
449,59.87341682327183
450,59.87341682327183
587,0.0
588,50.028219407538937
589,50.028219407538937
590,0.0
120,43200.0
2,1, 1,27, 0, 2, 0.00,60.00,Friday
7,-17.0
314,16.329066185594138
315,0.0
379,0.0
393,0.0
394,0.0
396,0.0
397,0.0
448,0.0
449,59.87341682327183
450,59.87341682327183
587,0.0
588,50.028219407538937
589,50.028219407538937
590,0.0
120,43200.0
2,1, 1,27, 0, 3, 0.00,60.00,Friday
7,-17.0
314,16.263422933743965
315,0.0
379,0.0
393,0.0
394,0.0
396,0.0
397,0.0
448,0.0
449,59.87341682327183
450,59.87341682327183
587,0.0
588,50.028219407538937
589,50.028219407538937
590,0.0
120,43200.0
2,1, 1,27, 0, 4, 0.00,60.00,Friday
7,-17.0
314,16.13681761479839
315,0.0
379,0.0
393,0.0
394,0.0
396,0.0
397,0.0
448,0.0
449,59.87341682327183
450,59.87341682327183
587,0.0
588,50.028219407538937
589,50.028219407538937
590,0.0
120,43200.0
2,1, 1,27, 0, 5, 0.00,60.00,Friday
7,-16.9
314,15.92455818983955
315,0.0
379,0.0
393,0.0
394,0.0
396,0.0
397,0.0
448,0.0
449,59.87341682327183
450,59.87341682327183
587,0.0
588,50.028219407538937
589,50.028219407538937
590,0.0
120,43200.0
2,1, 1,27, 0, 6, 0.00,60.00,Friday
7,-16.7
314,20.511349103657705
315,0.0
379,0.0
393,0.0
394,0.0
396,0.0
397,1390.6254486354032
448,0.04999489999999999
449,59.811743096515048
450,50.43011014268494
587,2000.0
588,50.100850104180278
589,59.668822944764247
590,0.04999489999999999
120,7243200.000000001
2,1, 1,27, 0, 7, 0.00,60.00,Friday
7,-16.6
314,20.384140027475316
315,0.0
379,0.0
393,0.0
394,0.0
396,0.0
397,1115.8328054928757
448,0.049994899999999998
449,59.81275797400669
450,50.49529650393171
587,2000.0
588,50.33784722895645
589,59.90560313441093
590,0.049994899999999998
120,7401600.0
2,1, 1,27, 0, 8, 0.00,60.00,Friday
7,-15.8
314,21.561507577280439
315,0.0
379,0.0
393,0.0
394,0.0
396,0.0
397,1274.5775798545703
448,0.049994899999999998
449,59.880175487235138
450,50.69467157076626
587,1990.5263381204527
588,50.472330553963647
589,59.99464330442207
590,0.049994899999999998
120,7518694.8172336299
2,1, 1,27, 0, 9, 0.00,60.00,Friday
7,-15.0
314,17.92905280316562
315,0.0
379,0.0
393,0.0
394,0.0
396,0.0
397,973.0443447857863
448,0.0499949
449,59.93379542384479
450,50.16240147054618
587,1979.9267716871743
588,50.52578387818944
589,59.99734199087232
590,0.0499949
120,7430136.378073827
2,1, 1,27, 0,10, 0.00,60.00,Friday
7,-14.2
314,17.7545135699184
315,0.0
379,0.0
393,0.0
394,0.0
396,0.0
397,1318.39640961456
448,0.0499949
449,59.922343719296247
450,49.81273390925902
587,2000.0
588,50.26492712744028
589,59.832749778933727
590,0.0499949
120,7430400.0
2,1, 1,27, 0,11, 0.00,60.00,Friday
7,-13.1
314,18.532707502954627
315,0.0
379,0.0
393,0.0
394,0.0
396,0.0
397,1290.9690458998089
448,0.049994899999999998
449,59.85278589685335
450,50.08868467444334
587,2000.0
588,50.15054516769717
589,59.71847251859819
590,0.049994899999999998
120,7394400.0
2,1, 1,27, 0,12, 0.00,60.00,Friday
7,-12.1
314,18.798109486180864
315,0.0
379,0.0
393,0.0
394,0.0
396,0.0
397,1237.8074468183509
448,0.0499949
449,59.79763568220541
450,50.15116320025647
587,2000.0
588,50.174559375491998
589,59.742464744825358
590,0.0499949
120,7437600.0
2,1, 1,27, 0,13, 0.00,60.00,Friday
7,-11.0
314,19.218957997709606
315,0.0
379,0.0
393,0.0
394,0.0
396,0.0
397,1245.576871784575
448,0.0499949
449,59.7808356423576
450,50.238354606280868
587,2000.0
588,50.210895820306067
589,59.77876792903158
590,0.0499949
120,7495200.0
2,1, 1,27, 0,14, 0.00,60.00,Friday
7,-10.7
314,19.127805062081796
315,0.0
379,0.0
393,0.0
394,0.0
396,0.0
397,1227.2274119238966
448,0.0499949
449,59.798257762538039
450,50.33349128510081
587,2000.0
588,50.28195445839871
589,59.84976152413866
590,0.0499949
120,7452000.0
2,1, 1,27, 0,15, 0.00,60.00,Friday
7,-10.5
314,18.98296090268152
315,0.0
379,0.0
393,0.0
394,0.0
396,0.0
397,1228.298483970502
448,0.0499949
449,59.8335763423976
450,50.336431738493178
587,2000.0
588,50.335430707833058
589,59.90318882509003
590,0.0499949
120,7444800.0
2,1, 1,27, 0,16, 0.00,60.00,Friday
7,-10.2
314,18.918268282688549
315,0.0
379,0.0
393,0.0
394,0.0
396,0.0
397,1232.996310834049
448,0.0499949
449,59.87166470806499
450,50.33784785870089
587,2000.0
588,50.36572813850996
589,59.93345852380367
590,0.0499949
120,7408800.0
2,1, 1,27, 0,17, 0.00,60.00,Friday
7,-9.8
314,18.973379763598169
315,0.0
379,0.0
393,0.0
394,0.0
396,0.0
397,1234.1351467730412
448,0.0499949
449,59.9039299993792
450,50.349078182380399
587,2000.0
588,50.38542902139241
589,59.953141374082878
590,0.0499949
120,7430400.0
2,1, 1,27, 0,18, 0.00,60.00,Friday
7,-9.4
314,19.465044858598838
315,0.0
379,0.0
393,0.0
394,0.0
396,0.0
397,1239.1457721001639
448,0.0499949
449,59.93202223421711
450,50.418636439504378
587,2000.0
588,50.411224425396778
589,59.978913167163288
590,0.0499949
120,7560000.0
2,1, 1,27, 0,19, 0.00,60.00,Friday
7,-9.0
314,21.767645360453359
315,0.0
379,0.0
393,0.0
394,0.0
396,0.0
397,1039.2339167125183
448,0.03694935578125
449,59.957659106385168
450,50.34592162063908
587,1474.6138923383346
588,50.45550298992414
589,59.999999999999989
590,0.03694935578125
120,5661410.012418006
2,1, 1,27, 0,20, 0.00,60.00,Friday
7,-8.0
314,21.921690624564527
315,0.0
379,0.0
393,0.0
394,0.0
396,0.0
397,1116.0621118983693
448,0.047260803906249999
449,59.97394886362499
450,50.90171063201453
587,1862.24732062569
588,50.57924706900318
589,60.0
590,0.047260803906249999
120,6992090.354252484
2,1, 1,27, 0,21, 0.00,60.00,Friday
7,-7.1
314,19.29568864900992
315,0.0
379,0.0
393,0.0
394,0.0
396,0.0
397,0.0
448,0.0
449,59.980483963769838
450,59.980483963769838
587,0.0
588,50.66091712705685
589,50.66091712705685
590,0.0
120,259200.0
2,1, 1,27, 0,22, 0.00,60.00,Friday
7,-6.1
314,18.699538913583376
315,0.0
379,0.0
393,0.0
394,0.0
396,0.0
397,0.0
448,0.0
449,59.98048396376984
450,59.98048396376984
587,0.0
588,50.66091712705685
589,50.66091712705685
590,0.0
120,324000.0
2,1, 1,27, 0,23, 0.00,60.00,Friday
7,-5.7
314,18.153341614517019
315,0.0
379,0.0
393,0.0
394,0.0
396,0.0
397,0.0
448,0.0
449,59.98048396376984
450,59.98048396376984
587,0.0
588,50.66091712705685
589,50.66091712705685
590,0.0
120,216000.0
2,1, 1,27, 0,24, 0.00,60.00,Friday
7,-5.4
314,17.66514423944848
315,0.0
379,0.0
393,0.0
394,0.0
396,0.0
397,0.0
448,0.0
449,59.98048396376984
450,59.98048396376984
587,0.0
588,50.66091712705685
589,50.66091712705685
590,0.0
120,57600.0
End of Data
 Number of Records Written=         384
