Program Version,EnergyPlus, Version 8.9.0-40101eaafd, YMD=2019.01.01 11:44
1,5,Environment Title[],Latitude[deg],Longitude[deg],Time Zone[],Elevation[m]
2,8,Day of Simulation[],Month[],Day of Month[],DST Indicator[1=yes 0=no],Hour[],StartMinute[],EndMinute[],DayType
3,5,Cumulative Day of Simulation[],Month[],Day of Month[],DST Indicator[1=yes 0=no],DayType  ! When Daily Report Variables Requested
4,2,Cumulative Days of Simulation[],Month[]  ! When Monthly Report Variables Requested
5,1,Cumulative Days of Simulation[] ! When Run Period Report Variables Requested
6,1,Calendar Year of Simulation[] ! When Annual Report Variables Requested
7,1,Environment,Site Outdoor Air Drybulb Temperature [C] !Hourly
314,1,ZONE ONE,Zone Air Temperature [C] !Hourly
315,1,ERV_1_HX,Heat Exchanger Total Heating Rate [W] !Hourly
379,1,ERV_1_FANSUPPLY,Fan Electric Power [W] !Hourly
393,1,ERV_1_FANSUPPLY,Fan Air Mass Flow Rate [kg/s] !Hourly
394,1,ERV_1_FANEXHAUST,Fan Electric Power [W] !Hourly
396,1,ERV_1_FANEXHAUST,Fan Air Mass Flow Rate [kg/s] !Hourly
397,1,RADIATOR,Baseboard Total Heating Rate [W] !Hourly
448,1,RADIATOR,Baseboard Hot Water Mass Flow Rate [kg/s] !Hourly
449,1,RADIATOR,Baseboard Water Inlet Temperature [C] !Hourly
450,1,RADIATOR,Baseboard Water Outlet Temperature [C] !Hourly
587,1,DISTRICT HEATING 1,District Heating Rate [W] !Hourly
588,1,DISTRICT HEATING 1,District Heating Inlet Temperature [C] !Hourly
589,1,DISTRICT HEATING 1,District Heating Outlet Temperature [C] !Hourly
590,1,DISTRICT HEATING 1,District Heating Mass Flow Rate [kg/s] !Hourly
120,1,DistrictHeating:Facility [J] !Hourly
End of Data Dictionary
1,ANNUAL SIM 1,  59.65,  17.95,   1.00,  61.00
2,1, 1,27, 0, 1, 0.00,60.00,Friday
7,-17.0
314,16.520382927461904
315,0.0
379,0.0
393,0.0
394,0.0
396,0.0
397,0.0
448,0.0
449,59.87341682327183
450,59.87341682327183
587,0.0
588,50.028219407538937
589,50.028219407538937
590,0.0
120,43200.0
2,1, 1,27, 0, 2, 0.00,60.00,Friday
7,-17.0
314,16.329066185594138
315,0.0
379,0.0
393,0.0
394,0.0
396,0.0
397,0.0
448,0.0
449,59.87341682327183
450,59.87341682327183
587,0.0
588,50.028219407538937
589,50.028219407538937
590,0.0
120,43200.0
2,1, 1,27, 0, 3, 0.00,60.00,Friday
7,-17.0
314,16.263422933743965
315,0.0
379,0.0
393,0.0
394,0.0
396,0.0
397,0.0
448,0.0
449,59.87341682327183
450,59.87341682327183
587,0.0
588,50.028219407538937
589,50.028219407538937
590,0.0
120,43200.0
2,1, 1,27, 0, 4, 0.00,60.00,Friday
7,-17.0
314,16.13681761479839
315,0.0
379,0.0
393,0.0
394,0.0
396,0.0
397,0.0
448,0.0
449,59.87341682327183
450,59.87341682327183
587,0.0
588,50.028219407538937
589,50.028219407538937
590,0.0
120,43200.0
2,1, 1,27, 0, 5, 0.00,60.00,Friday
7,-16.9
314,15.92455818983955
315,0.0
379,0.0
393,0.0
394,0.0
396,0.0
397,0.0
448,0.0
449,59.87341682327183
450,59.87341682327183
587,0.0
588,50.028219407538937
589,50.028219407538937
590,0.0
120,43200.0
2,1, 1,27, 0, 6, 0.00,60.00,Friday
7,-16.7
314,20.511349103657705
315,0.0
379,0.0
393,0.0
394,0.0
396,0.0
397,1390.6254486354032
448,0.04999489999999999
449,59.811743096515048
450,50.43011014268494
587,2000.0
588,50.100850104180278
589,59.668822944764247
590,0.04999489999999999
120,7243200.000000001
2,1, 1,27, 0, 7, 0.00,60.00,Friday
7,-16.6
314,20.384140027475316
315,0.0
379,0.0
393,0.0
394,0.0
396,0.0
397,1115.8328054928757
448,0.049994899999999998
449,59.81275797400669
450,50.49529650393171
587,2000.0
588,50.33784722895645
589,59.90560313441093
590,0.049994899999999998
120,7401600.0
2,1, 1,27, 0, 8, 0.00,60.00,Friday
7,-15.8
314,20.01790005759157
315,0.0
379,0.0
393,0.0
394,0.0
396,0.0
397,799.0054447073405
448,0.029996940000000004
449,59.86848155646642
450,49.489469822854108
587,1220.8625075619852
588,50.2658371616438
589,60.0
590,0.029996940000000004
120,4747905.0272231469
2,1, 1,27, 0, 9, 0.00,60.00,Friday
7,-15.0
314,17.319282079935947
315,0.0
379,0.0
393,0.0
394,0.0
396,0.0
397,950.9665421235757
448,0.04285277142857142
449,59.85087615470441
450,51.27422079499941
587,1714.2857142857142
588,50.10046340454296
589,58.30158881171698
590,0.04285277142857142
120,6473828.571428573
2,1, 1,27, 0,10, 0.00,60.00,Friday
7,-14.2
314,18.1910528641193
315,0.0
379,0.0
393,0.0
394,0.0
396,0.0
397,1300.106114678559
448,0.0499949
449,59.74322698353778
450,49.862636099484067
587,2000.0
588,50.00735815090425
589,59.57541568271853
590,0.0499949
120,7430400.0
2,1, 1,27, 0,11, 0.00,60.00,Friday
7,-13.1
314,18.588148071506489
315,0.0
379,0.0
393,0.0
394,0.0
396,0.0
397,1268.0911512935231
448,0.0499949
449,59.66506806996453
450,49.98821614458822
587,2000.0
588,50.00588342954117
589,59.5739428378011
590,0.0499949
120,7394400.0
2,1, 1,27, 0,12, 0.00,60.00,Friday
7,-12.1
314,18.8227694517575
315,0.0
379,0.0
393,0.0
394,0.0
396,0.0
397,1239.4188165888322
448,0.0499949
449,59.635777727062258
450,50.04700925353914
587,2000.0
588,50.04746363283191
589,59.61548534126882
590,0.0499949
120,7437600.0
2,1, 1,27, 0,13, 0.00,60.00,Friday
7,-11.0
314,19.073554299198397
315,0.0
379,0.0
393,0.0
394,0.0
396,0.0
397,1230.6156164759268
448,0.0499949
449,59.637556528215089
450,50.115389284513707
587,2000.0
588,50.09370972629378
589,59.661689102306947
590,0.0499949
120,7495200.0
2,1, 1,27, 0,14, 0.00,60.00,Friday
7,-10.7
314,19.017457856073049
315,0.0
379,0.0
393,0.0
394,0.0
396,0.0
397,1224.730590751156
448,0.0499949
449,59.662358166007937
450,50.20131952274093
587,2000.0
588,50.15429579936424
589,59.722219717090819
590,0.0499949
120,7452000.0
2,1, 1,27, 0,15, 0.00,60.00,Friday
7,-10.5
314,18.045322313320744
315,0.0
379,0.0
393,0.0
394,0.0
396,0.0
397,990.4182141263268
448,0.039058515625
449,59.74081026503985
450,49.530928425787539
587,1622.6539446548106
588,50.06897657300608
589,60.0
590,0.039058515625
120,6086354.200757317
2,1, 1,27, 0,16, 0.00,60.00,Friday
7,-10.2
314,18.112935539908809
315,0.0
379,0.0
393,0.0
394,0.0
396,0.0
397,1105.942871054965
448,0.041792611718750007
449,59.84230803099856
450,49.6646206112607
587,1760.6157318001299
588,49.92403902967185
589,59.99999999999999
590,0.041792611718750007
120,6547016.634480468
2,1, 1,27, 0,17, 0.00,60.00,Friday
7,-9.8
314,18.101735333374554
315,0.0
379,0.0
393,0.0
394,0.0
396,0.0
397,1023.3828744496486
448,0.03796487718750001
449,59.90247468913504
450,49.54209687321712
587,1614.933996014786
588,49.825894725297889
589,60.0
590,0.03796487718750001
120,6044162.38565323
2,1, 1,27, 0,18, 0.00,60.00,Friday
7,-9.4
314,18.09463766252506
315,0.0
379,0.0
393,0.0
394,0.0
396,0.0
397,910.8773209756314
448,0.0329653871875
449,59.93637096942618
450,49.316953147790758
587,1418.1409296984873
588,49.71067100394533
589,60.0
590,0.0329653871875
120,5465307.346914554
2,1, 1,27, 0,19, 0.00,60.00,Friday
7,-9.0
314,18.734116912553515
315,0.0
379,0.0
393,0.0
394,0.0
396,0.0
397,318.4165792290895
448,0.011248852500000002
449,59.95189377291813
450,55.91489362774651
587,487.9940935139291
588,49.62069035501375
589,53.511726429463617
590,0.011248852500000002
120,2109578.7366501449
2,1, 1,27, 0,20, 0.00,60.00,Friday
7,-8.0
314,18.604949100908038
315,0.0
379,0.0
393,0.0
394,0.0
396,0.0
397,230.69641980459688
448,0.008570554285714287
449,59.957240932413508
450,56.87653003237975
587,373.2926265406643
588,49.57985549028025
589,52.55632176477994
590,0.008570554285714287
120,1631853.4555463915
2,1, 1,27, 0,21, 0.00,60.00,Friday
7,-7.1
314,17.640451835725444
315,0.0
379,0.0
393,0.0
394,0.0
396,0.0
397,0.0
448,0.0
449,59.9591121770033
450,59.9591121770033
587,0.0
588,49.56447818932704
589,49.56447818932704
590,0.0
120,259200.0
2,1, 1,27, 0,22, 0.00,60.00,Friday
7,-6.1
314,17.43071526033057
315,0.0
379,0.0
393,0.0
394,0.0
396,0.0
397,0.0
448,0.0
449,59.9591121770033
450,59.9591121770033
587,0.0
588,49.56447818932704
589,49.56447818932704
590,0.0
120,324000.0
2,1, 1,27, 0,23, 0.00,60.00,Friday
7,-5.7
314,17.31330927091731
315,0.0
379,0.0
393,0.0
394,0.0
396,0.0
397,0.0
448,0.0
449,59.9591121770033
450,59.9591121770033
587,0.0
588,49.56447818932704
589,49.56447818932704
590,0.0
120,216000.0
2,1, 1,27, 0,24, 0.00,60.00,Friday
7,-5.4
314,17.09357525225508
315,0.0
379,0.0
393,0.0
394,0.0
396,0.0
397,0.0
448,0.0
449,59.9591121770033
450,59.9591121770033
587,0.0
588,49.56447818932704
589,49.56447818932704
590,0.0
120,57600.0
End of Data
 Number of Records Written=         384
