Program Version,EnergyPlus, Version 8.9.0-40101eaafd, YMD=2018.11.16 16:18
1,5,Environment Title[],Latitude[deg],Longitude[deg],Time Zone[],Elevation[m]
2,8,Day of Simulation[],Month[],Day of Month[],DST Indicator[1=yes 0=no],Hour[],StartMinute[],EndMinute[],DayType
3,5,Cumulative Day of Simulation[],Month[],Day of Month[],DST Indicator[1=yes 0=no],DayType  ! When Daily Report Variables Requested
4,2,Cumulative Days of Simulation[],Month[]  ! When Monthly Report Variables Requested
5,1,Cumulative Days of Simulation[] ! When Run Period Report Variables Requested
6,1,Calendar Year of Simulation[] ! When Annual Report Variables Requested
7,1,Environment,Site Outdoor Air Drybulb Temperature [C] !Hourly
8,1,ZONE ONE LIGHTS,Lights Electric Energy [J] !Hourly
167,1,ZONE ONE,Zone Air Temperature [C] !Hourly
230,1,RADIATOR,Baseboard Hot Water Mass Flow Rate [kg/s] !Hourly
231,1,RADIATOR,Baseboard Water Inlet Temperature [C] !Hourly
232,1,RADIATOR,Baseboard Water Outlet Temperature [C] !Hourly
381,1,DISTRICT HEATING 1,District Heating Rate [W] !Hourly
382,1,DISTRICT HEATING 1,District Heating Inlet Temperature [C] !Hourly
383,1,DISTRICT HEATING 1,District Heating Outlet Temperature [C] !Hourly
384,1,DISTRICT HEATING 1,District Heating Mass Flow Rate [kg/s] !Hourly
346,1,DistrictHeating:Facility [J] !Hourly
End of Data Dictionary
1,ANNUAL SIM 1,  59.65,  17.95,   1.00,  61.00
2,1, 1, 1, 0, 1, 0.00,60.00,Sunday
7,4.0
8,180000.0
167,20.324916475982847
230,0.00607481975830078
231,70.0
232,26.323987784367114
381,1108.7951812539477
382,26.326500579148786
383,70.0
384,0.00607481975830078
346,3991662.652514212
2,1, 1, 1, 0, 2, 0.00,60.00,Sunday
7,5.3
8,180000.0
167,20.310265422942036
230,0.005639073193359373
231,70.0
232,26.11630627242333
381,1029.2716850544232
382,26.326061111533467
383,70.0
384,0.005639073193359373
346,3705378.0661959236
2,1, 1, 1, 0, 3, 0.00,60.00,Sunday
7,6.2
8,180000.0
167,20.290200771004757
230,0.00525459093017578
231,70.0
232,25.942160063295284
381,959.3680010797675
382,26.313561080145634
383,70.0
384,0.00525459093017578
346,3453724.803887163
2,1, 1, 1, 0, 4, 0.00,60.00,Sunday
7,6.8
8,180000.0
167,20.27840019250401
230,0.005015357521972656
231,70.0
232,25.819909184911297
381,916.1077066558918
382,26.2935651154607
383,70.0
384,0.005015357521972656
346,3297987.7439612105
2,1, 1, 1, 0, 5, 0.00,60.00,Sunday
7,7.2
8,180000.0
167,20.269330534250565
230,0.004844476516113279
231,70.0
232,25.73270153768936
381,885.3817207719609
382,26.269449837306199
383,70.0
384,0.004844476516113279
346,3187374.1947790596
2,1, 1, 1, 0, 6, 0.00,60.00,Sunday
7,7.5
8,180000.0
167,20.26260935595194
230,0.004724859812011718
231,70.0
232,25.66982130730935
381,864.038277680616
382,26.243170572166606
383,70.00000000000002
384,0.004724859812011718
346,3110537.799650218
2,1, 1, 1, 0, 7, 0.00,60.00,Sunday
7,7.5
8,180000.0
167,20.259068338165777
230,0.004682139560546875
231,70.0
232,25.64402842530901
381,856.750167463868
382,26.216326946948624
383,70.0
384,0.004682139560546875
346,3084300.602869925
2,1, 1, 1, 0, 8, 0.00,60.00,Sunday
7,6.7
8,180000.0
167,20.273877394767884
230,0.004895740817871093
231,70.0
232,25.738704560575067
381,896.3214365583873
382,26.19252633927195
383,70.0
384,0.004895740817871093
346,3226757.1716101944
2,1, 1, 1, 0, 9, 0.00,60.00,Sunday
7,6.0
8,180000.0
167,20.286341010120365
230,0.0051435182763671879
231,70.0
232,25.861792519830304
381,942.052245751605
382,26.17540603361373
383,70.00000000000002
384,0.0051435182763671879
346,3391388.084705778
2,1, 1, 1, 0,10, 0.00,60.00,Sunday
7,5.2
8,180000.0
167,20.290343973654463
230,0.005237502829589843
231,70.0
232,25.91359397603994
381,959.5164085625129
382,26.163933917302786
383,70.0
384,0.005237502829589843
346,3454259.0708250466
2,1, 1, 1, 0,11, 0.00,60.00,Sunday
7,5.2
8,180000.0
167,20.265390783558826
230,0.004750491962890624
231,70.0
232,25.700369614320424
381,870.5901766247114
382,26.1490585753488
383,70.0
384,0.004750491962890624
346,3134124.635848961
2,1, 1, 1, 0,12, 0.00,60.00,Sunday
7,5.2
8,180000.0
167,20.25175256944577
230,0.004374553749999999
231,70.0
232,25.50026043290653
381,802.1305070553245
382,26.12516256497653
383,70.0
384,0.004374553749999999
346,2887669.8253991685
2,1, 1, 1, 0,13, 0.00,60.00,Sunday
7,5.2
8,180000.0
167,20.236989210132174
230,0.004212216794433593
231,70.0
232,25.40808858748604
381,772.8697877512825
382,26.09636722185386
383,70.0
384,0.004212216794433593
346,2782331.2359046174
2,1, 1, 1, 0,14, 0.00,60.00,Sunday
7,4.6
8,180000.0
167,20.238679356612758
230,0.004254937045898436
231,70.0
232,25.41610020724478
381,781.224204347892
382,26.06728958376786
383,70.0
384,0.004254937045898436
346,2812407.1356524114
2,1, 1, 1, 0,15, 0.00,60.00,Sunday
7,4.1
8,180000.0
167,20.279245844639524
230,0.005305855231933594
231,70.0
232,25.90067100912959
381,974.5256685600941
382,26.051540155082259
383,70.0
384,0.005305855231933594
346,3508292.4068163388
2,1, 1, 1, 0,16, 0.00,60.00,Sunday
7,3.5
8,180000.0
167,20.324405069101425
230,0.006032099506835937
231,70.0
232,26.233171581571534
381,1107.707951748377
382,26.059764641960908
383,70.0
384,0.006032099506835937
346,3987748.626294157
2,1, 1, 1, 0,17, 0.00,60.00,Sunday
7,3.2
8,180000.0
167,20.344281165805528
230,0.0063311412670898439
231,70.0
232,26.38770656634533
381,1161.9607032322274
382,26.084835060749293
383,70.0
384,0.0063311412670898439
346,4183058.531636019
2,1, 1, 1, 0,18, 0.00,60.00,Sunday
7,2.9
8,180000.0
167,20.350180596466126
230,0.006476390122070311
231,70.0
232,26.459513816154975
381,1187.7456257132046
382,26.117147718827135
383,70.0
384,0.006476390122070311
346,4275884.252567536
2,1, 1, 1, 0,19, 0.00,60.00,Sunday
7,2.6
8,180000.0
167,20.35814542168826
230,0.006587462775878905
231,70.0
232,26.50567035272674
381,1207.1566353036155
382,26.152065933807866
383,69.99999999999999
384,0.006587462775878905
346,4345763.887093016
2,1, 1, 1, 0,20, 0.00,60.00,Sunday
7,2.5
8,180000.0
167,20.358803265315609
230,0.006613094926757811
231,70.0
232,26.522034327861414
381,1210.8894113899732
382,26.187031196618265
383,70.0
384,0.006613094926757811
346,4359201.881003903
2,1, 1, 1, 0,21, 0.00,60.00,Sunday
7,2.4
8,180000.0
167,20.36345200017893
230,0.006630183027343749
231,70.0
232,26.528853816752617
381,1213.0980110780342
382,26.22031432106366
383,70.00000000000002
384,0.006630183027343749
346,4367152.839880923
2,1, 1, 1, 0,22, 0.00,60.00,Sunday
7,2.3
8,180000.0
167,20.358959714624456
230,0.006613094926757811
231,70.0
232,26.526682003485406
381,1209.1188543156939
382,26.251228728916109
383,70.0
384,0.006613094926757811
346,4352827.875536498
2,1, 1, 1, 0,23, 0.00,60.00,Sunday
7,2.3
8,180000.0
167,20.35993514731647
230,0.006630183027343749
231,70.0
232,26.52899082051608
381,1211.4534910713314
382,26.2797880975465
383,70.0
384,0.006630183027343749
346,4361232.567856793
2,1, 1, 1, 0,24, 0.00,60.00,Sunday
7,2.2
8,180000.0
167,20.363529454989075
230,0.006672903278808593
231,70.0
232,26.54540315110848
381,1218.5017642415858
382,26.307006875351559
383,70.0
384,0.006672903278808593
346,4386606.351269709
End of Data
 Number of Records Written=         264
