Program Version,EnergyPlus, Version 8.9.0-40101eaafd, YMD=2018.11.30 16:22
1,5,Environment Title[],Latitude[deg],Longitude[deg],Time Zone[],Elevation[m]
2,8,Day of Simulation[],Month[],Day of Month[],DST Indicator[1=yes 0=no],Hour[],StartMinute[],EndMinute[],DayType
3,5,Cumulative Day of Simulation[],Month[],Day of Month[],DST Indicator[1=yes 0=no],DayType  ! When Daily Report Variables Requested
4,2,Cumulative Days of Simulation[],Month[]  ! When Monthly Report Variables Requested
5,1,Cumulative Days of Simulation[] ! When Run Period Report Variables Requested
6,1,Calendar Year of Simulation[] ! When Annual Report Variables Requested
7,1,Environment,Site Outdoor Air Drybulb Temperature [C] !Hourly
94,1,ZONE ONE,Zone Air Temperature [C] !Hourly
95,1,RADIATOR,Baseboard Total Heating Rate [W] !Hourly
158,1,RADIATOR,Baseboard Hot Water Mass Flow Rate [kg/s] !Hourly
159,1,RADIATOR,Baseboard Water Inlet Temperature [C] !Hourly
160,1,RADIATOR,Baseboard Water Outlet Temperature [C] !Hourly
198,1,DISTRICT HEATING 1,District Heating Rate [W] !Hourly
199,1,DISTRICT HEATING 1,District Heating Inlet Temperature [C] !Hourly
200,1,DISTRICT HEATING 1,District Heating Outlet Temperature [C] !Hourly
201,1,DISTRICT HEATING 1,District Heating Mass Flow Rate [kg/s] !Hourly
163,1,DistrictHeating:Facility [J] !Hourly
End of Data Dictionary
1,ANNUAL SIM 1,  59.65,  17.95,   1.00,  61.00
2,1, 1, 1, 0, 1, 0.00,60.00,Sunday
7,4.0
94,19.2865296901387
95,677.3074631074155
158,0.021384537304687504
159,59.648201444317908
160,48.896154079106768
198,694.0312600701071
199,49.23101103714507
200,56.99374999999999
201,0.021384537304687504
163,2498512.5362523857
2,1, 1, 1, 0, 2, 0.00,60.00,Sunday
7,5.3
94,19.268999802591673
95,624.2862407657012
158,0.019895431396484379
159,59.06649036699093
160,48.41098223428514
198,655.0806359348418
199,49.11822430269304
200,56.99375
201,0.019895431396484379
163,2358290.2893654305
2,1, 1, 1, 0, 3, 0.00,60.00,Sunday
7,6.2
94,19.250593291993856
95,577.3971202073093
158,0.018577206494140624
159,58.607797570706619
160,48.03061382389081
198,602.3049114215754
199,48.94632291284117
200,56.70124999999999
201,0.018577206494140624
163,2168297.6811176717
2,1, 1, 1, 0, 4, 0.00,60.00,Sunday
7,6.8
94,19.237538655147295
95,546.9217258204156
158,0.017771624609375
159,58.20490402312153
160,47.70837033223758
198,569.22019880341
199,48.74751075171355
200,56.408750000000008
201,0.017771624609375
163,2049192.715692276
2,1, 1, 1, 0, 5, 0.00,60.00,Sunday
7,7.2
94,19.228714919801818
95,525.5993855416261
158,0.01723457001953125
159,57.83622467367111
160,47.421056884482897
198,546.2383917668577
199,48.53515335335718
200,56.11624999999999
201,0.01723457001953125
163,1966458.2103606878
2,1, 1, 1, 0, 6, 0.00,60.00,Sunday
7,7.5
94,19.221441728735557
95,510.58285330278945
158,0.0168928080078125
159,57.489909553817948
160,47.15685388957398
198,530.2333110664433
199,48.31582399086288
200,55.82375
201,0.0168928080078125
163,1908839.919839196
2,1, 1, 1, 0, 7, 0.00,60.00,Sunday
7,7.5
94,19.22025426247453
95,506.04696935662067
158,0.0168928080078125
159,57.1566422809792
160,46.91131159593121
198,525.3886460727203
199,48.09184310987418
200,55.53125
201,0.0168928080078125
163,1891399.1258617934
2,1, 1, 1, 0, 8, 0.00,60.00,Sunday
7,6.7
94,19.230179940614304
95,529.7420291157791
158,0.017893682470703125
159,56.82187404581253
160,46.691738939633108
198,551.9768275981014
199,47.85995553752263
200,55.23875
201,0.017893682470703125
163,1987116.579353165
2,1, 1, 1, 0, 9, 0.00,60.00,Sunday
7,6.0
94,19.245004507685374
95,561.499105550386
158,0.019187495800781254
159,56.47565206494736
160,46.47627103214213
198,587.8925865836381
199,47.61717740297944
200,54.946249999999988
201,0.019187495800781254
163,2116413.3117010977
2,1, 1, 1, 0,10, 0.00,60.00,Sunday
7,5.2
94,19.247791358519348
95,572.9042636890808
158,0.01977337353515625
159,56.12515709987525
160,46.2401961763127
198,602.3262426536521
199,47.367139632601737
200,54.653749999999998
201,0.01977337353515625
163,2168374.4735531478
2,1, 1, 1, 0,11, 0.00,60.00,Sunday
7,5.2
94,19.22526480153819
95,515.598919374921
158,0.0178692708984375
159,55.79801874626806
160,45.94958497411076
198,540.6997840293321
199,47.1230768665036
200,54.36125
201,0.0178692708984375
163,1946519.2225055958
2,1, 1, 1, 0,12, 0.00,60.00,Sunday
7,5.2
94,19.201887160468567
95,469.7291795657012
158,0.016453399707031248
159,55.50304155459321
160,45.69362835824891
198,493.56839991854386
199,46.89285482954151
200,54.06874999999999
201,0.016453399707031248
163,1776846.2397067578
2,1, 1, 1, 0,13, 0.00,60.00,Sunday
7,5.2
94,19.19725543394698
95,449.37914117317959
158,0.015818698828124999
159,55.224483344777599
160,45.469771881804309
198,469.71082506235038
199,46.673136341228808
200,53.77625000000002
201,0.015818698828124999
163,1690958.9702244614
2,1, 1, 1, 0,14, 0.00,60.00,Sunday
7,4.6
94,19.198798567063958
95,451.8659490781057
158,0.01606281455078125
159,54.946299563637598
160,45.270692768623018
198,471.8268896868091
199,46.45700026541661
200,53.48375
201,0.01606281455078125
163,1698576.802872513
2,1, 1, 1, 0,15, 0.00,60.00,Sunday
7,4.1
94,19.23647176737744
95,573.3186020697549
158,0.02094512900390625
159,54.62305925329413
160,45.16058457124648
198,610.1997464306171
199,46.22197968142484
200,53.19125000000001
201,0.02094512900390625
163,2196719.0871502219
2,1, 1, 1, 0,16, 0.00,60.00,Sunday
7,3.5
94,19.28352516540373
95,667.539830045677
158,0.0247045111328125
159,54.242747950925259
160,45.01056960121722
198,716.1614520827333
199,45.963879326176407
200,52.898750000000017
201,0.0247045111328125
163,2578181.22749784
2,1, 1, 1, 0,17, 0.00,60.00,Sunday
7,3.2
94,19.30211629667725
95,705.7353503633946
158,0.02651096748046875
159,53.84648063438732
160,44.79316510651112
198,765.5601304698455
199,45.698081161181487
200,52.60625
201,0.02651096748046875
163,2756016.4696914439
2,1, 1, 1, 0,18, 0.00,60.00,Sunday
7,2.9
94,19.310131752499939
95,725.1446995925214
158,0.027633899804687505
159,53.46600625623241
160,44.55678320562888
198,800.3340310811176
199,45.43017560068435
200,52.35875
201,0.027633899804687505
163,2881202.5118920237
2,1, 1, 1, 0,19, 0.00,60.00,Sunday
7,2.6
94,19.318036742693676
95,738.442901342081
158,0.02851271640625
159,53.119069182998028
160,44.33378217095192
198,833.2410373781843
199,45.16504003778162
200,52.15625
201,0.02851271640625
163,2999667.7345614635
2,1, 1, 1, 0,20, 0.00,60.00,Sunday
7,2.5
94,19.317697503613393
95,741.51801617081
158,0.02895212470703125
159,52.80701868357572
160,44.12053697357103
198,852.6029264443616
199,44.908602397316489
200,51.95374999999999
201,0.02895212470703125
163,3069370.535199702
2,1, 1, 1, 0,21, 0.00,60.00,Sunday
7,2.4
94,19.31596670144472
95,742.6254457135351
158,0.029293886718750003
159,52.5239192283488
160,43.9229330975017
198,867.7675893958085
199,44.664450499391069
200,51.75125
201,0.029293886718750003
163,3123963.3218249108
2,1, 1, 1, 0,22, 0.00,60.00,Sunday
7,2.3
94,19.31911182016644
95,743.3937678466407
158,0.0295868255859375
159,52.26222481050855
160,43.73896286616395
198,879.891467724934
199,44.43408504485128
200,51.54875
201,0.0295868255859375
163,3167609.2838097626
2,1, 1, 1, 0,23, 0.00,60.00,Sunday
7,2.3
94,19.320466634835236
95,744.6205108149727
158,0.029879764453125
159,52.01592006756361
160,43.5675748610993
198,890.3344030761426
199,44.21772456074661
200,51.34625
201,0.029879764453125
163,3205203.8510741137
2,1, 1, 1, 0,24, 0.00,60.00,Sunday
7,2.2
94,19.3232788350969
95,749.6263653320036
158,0.0303679958984375
159,51.7804438868367
160,43.4107349566833
198,904.9196445556091
199,44.0149307665218
200,51.14375000000001
201,0.0303679958984375
163,3257710.720400193
End of Data
 Number of Records Written=         264
