Program Version,EnergyPlus, Version 8.9.0-40101eaafd, YMD=2018.12.14 10:41
1,5,Environment Title[],Latitude[deg],Longitude[deg],Time Zone[],Elevation[m]
2,8,Day of Simulation[],Month[],Day of Month[],DST Indicator[1=yes 0=no],Hour[],StartMinute[],EndMinute[],DayType
3,5,Cumulative Day of Simulation[],Month[],Day of Month[],DST Indicator[1=yes 0=no],DayType  ! When Daily Report Variables Requested
4,2,Cumulative Days of Simulation[],Month[]  ! When Monthly Report Variables Requested
5,1,Cumulative Days of Simulation[] ! When Run Period Report Variables Requested
6,1,Calendar Year of Simulation[] ! When Annual Report Variables Requested
7,1,Environment,Site Outdoor Air Drybulb Temperature [C] !Hourly
94,1,RADIATOR,Baseboard Total Heating Rate [W] !Hourly
157,1,RADIATOR,Baseboard Hot Water Mass Flow Rate [kg/s] !Hourly
158,1,RADIATOR,Baseboard Water Inlet Temperature [C] !Hourly
159,1,RADIATOR,Baseboard Water Outlet Temperature [C] !Hourly
197,1,DISTRICT HEATING 1,District Heating Rate [W] !Hourly
198,1,DISTRICT HEATING 1,District Heating Inlet Temperature [C] !Hourly
199,1,DISTRICT HEATING 1,District Heating Outlet Temperature [C] !Hourly
200,1,DISTRICT HEATING 1,District Heating Mass Flow Rate [kg/s] !Hourly
162,1,DistrictHeating:Facility [J] !Hourly
End of Data Dictionary
1,ANNUAL SIM 1,  59.65,  17.95,   1.00,  61.00
2,1, 1,27, 0, 1, 0.00,60.00,Friday
7,-11.393333333333335
94,824.8475815728
157,0.029023081010416678
158,63.039757403811467
159,53.37562339513439
197,1733.3333333333333
198,52.649428383544179
199,65.19242313991787
200,0.029023081010416678
162,6240000.000000001
2,1, 1,27, 0, 2, 0.00,60.00,Friday
7,-17.0
94,1232.7778256972078
157,0.04526621570833334
158,63.64184342624079
159,52.981495474671159
197,2000.0
198,52.67496272661713
199,63.286061265575607
200,0.04526621570833334
162,7200000.000000001
2,1, 1,27, 0, 3, 0.00,60.00,Friday
7,-17.0
94,1318.338493426396
157,0.04998448439583331
158,63.18599125769268
159,52.87619353716039
197,2000.0
198,52.8400855438557
199,62.40755069447592
200,0.04998448439583331
162,7200000.000000001
2,1, 1,27, 0, 4, 0.00,60.00,Friday
7,-17.0
94,1312.3261945702254
157,0.049994899999999977
158,62.83080470672207
159,52.56923836181657
197,2000.0
198,52.803900294845387
199,62.36939948980485
200,0.049994899999999977
162,7200000.000000001
2,1, 1,27, 0, 5, 0.00,60.00,Friday
7,-16.948333333333335
94,1308.6561642957681
157,0.049994899999999977
158,62.592120178780088
159,52.35873077782763
197,2000.0
198,52.67376982011767
199,62.23938807229076
200,0.049994899999999977
162,7200000.000000001
2,1, 1,27, 0, 6, 0.00,60.00,Friday
7,-16.796666666666668
94,1305.5019873074666
157,0.049994899999999977
158,62.39439605398055
159,52.18458751414781
197,2000.0
198,52.51667267267937
199,62.082434657915367
200,0.049994899999999977
162,7200000.000000001
2,1, 1,27, 0, 7, 0.00,60.00,Friday
7,-16.648333333333335
94,1301.2054402743265
157,0.049994899999999977
158,62.214322800791617
159,52.03772113681453
197,2000.0
198,52.359012429194489
199,61.92491866699313
200,0.049994899999999977
162,7200000.000000001
2,1, 1,27, 0, 8, 0.00,60.00,Friday
7,-16.18666666666667
94,1295.8687920243506
157,0.049994899999999977
158,62.046716345200049
159,51.91166711065484
197,2000.0
198,52.21149418717907
199,61.77753540195791
200,0.049994899999999977
162,7200000.000000001
2,1, 1,27, 0, 9, 0.00,60.00,Friday
7,-15.386666666666665
94,1288.111652621846
157,0.049994899999999977
158,61.89207672421399
159,51.8178010657639
197,2000.0
198,52.08086189276853
199,61.64702263730158
200,0.049994899999999977
162,7200000.000000001
2,1, 1,27, 0,10, 0.00,60.00,Friday
7,-14.586666666666665
94,1251.3145611785526
157,0.048677326072916648
158,61.77879982162433
159,51.724186055484128
197,2000.0
198,51.975394538104819
199,61.81313716279703
200,0.048677326072916648
162,7200000.000000001
2,1, 1,27, 0,11, 0.00,60.00,Friday
7,-13.631666666666665
94,1114.0483966625134
157,0.041542637218750007
158,62.11483657132569
159,51.61861637803091
197,2000.0
198,51.8606551676141
199,63.39556008369929
200,0.041542637218750007
162,7200000.000000001
2,1, 1,27, 0,12, 0.00,60.00,Friday
7,-12.583333333333334
94,1013.1412949261788
157,0.03612131525
158,62.921151154041279
159,51.94104918351871
197,2000.0
198,51.84616791080164
199,65.10230428225506
200,0.03612131525
162,7200000.000000001
2,1, 1,27, 0,13, 0.00,60.00,Friday
7,-11.531666666666668
94,949.7858225070651
157,0.03256178252604167
158,63.93593560136944
159,52.516979815149898
197,2000.0
198,51.99665118065187
199,66.69643801506855
200,0.03256178252604167
162,7200000.000000001
2,1, 1,27, 0,14, 0.00,60.00,Friday
7,-10.845
94,1300.6946501005812
157,0.049994899999999977
158,63.869890672939657
159,53.70011709486412
197,2000.0
198,52.54810367777987
199,62.11383690919039
200,0.049994899999999977
162,7200000.000000001
2,1, 1,27, 0,15, 0.00,60.00,Friday
7,-10.596666666666664
94,1267.4667750442977
157,0.049994899999999977
158,63.20565151176912
159,53.29195953000278
197,2000.0
198,52.988913918687519
199,62.55424384898394
200,0.049994899999999977
162,7200000.000000001
2,1, 1,27, 0,16, 0.00,60.00,Friday
7,-10.345
94,1264.0652320927868
157,0.049994899999999977
158,62.94482569642119
159,53.056747285337497
197,2000.0
198,53.09253006543291
199,62.65776520184056
200,0.049994899999999977
162,7200000.000000001
2,1, 1,27, 0,17, 0.00,60.00,Friday
7,-9.993333333333333
94,1266.8102178166162
157,0.049994899999999977
158,62.811317370522328
159,52.90143870093138
197,2000.0
198,53.06512540407579
199,62.63038561155957
200,0.049994899999999977
162,7200000.000000001
2,1, 1,27, 0,18, 0.00,60.00,Friday
7,-9.593333333333334
94,1266.8639532405573
157,0.049994899999999977
158,62.71283336808286
159,52.80261050273589
197,2000.0
198,52.994732978628629
199,62.5600575849811
200,0.049994899999999977
162,7200000.000000001
2,1, 1,27, 0,19, 0.00,60.00,Friday
7,-9.193333333333332
94,1263.7166782445424
157,0.049994899999999977
158,62.62534834507307
159,52.739940141512608
197,2000.0
198,52.92094716570826
199,62.48633927629387
200,0.049994899999999977
162,7200000.000000001
2,1, 1,27, 0,20, 0.00,60.00,Friday
7,-8.483333333333335
94,1259.3207515372228
157,0.049994899999999977
158,62.54636212740552
159,52.69519703620153
197,2000.0
198,52.8569942313638
199,62.422444851169668
200,0.049994899999999977
162,7200000.000000001
2,1, 1,27, 0,21, 0.00,60.00,Friday
7,-7.535
94,1253.0780484702238
157,0.049994899999999977
158,62.47755035731104
159,52.675110028372767
197,2000.0
198,52.80759298760854
199,62.373088804078538
200,0.049994899999999977
162,7200000.000000001
2,1, 1,27, 0,22, 0.00,60.00,Friday
7,-6.583333333333332
94,1245.5714634923795
157,0.049994899999999977
158,62.422171958971059
159,52.67805638536536
197,2000.0
198,52.777323796756949
199,62.34284730639255
200,0.049994899999999977
162,7200000.000000001
2,1, 1,27, 0,23, 0.00,60.00,Friday
7,-5.893333333333333
94,1238.4666353603272
157,0.049994899999999977
158,62.38293468852649
159,52.694110143309718
197,2000.0
198,52.765900119661448
199,62.3314340808171
200,0.049994899999999977
162,7200000.000000001
2,1, 1,27, 0,24, 0.00,60.00,Friday
7,-5.545
94,1233.45525162458
157,0.049994899999999977
158,62.359631105678868
159,52.70948843299026
197,2000.0
198,52.76690590226359
199,62.332438943227817
200,0.049994899999999977
162,7200000.000000001
End of Data
 Number of Records Written=         240
