Program Version,EnergyPlus, Version 8.9.0-40101eaafd, YMD=2018.12.28 10:19
1,5,Environment Title[],Latitude[deg],Longitude[deg],Time Zone[],Elevation[m]
2,8,Day of Simulation[],Month[],Day of Month[],DST Indicator[1=yes 0=no],Hour[],StartMinute[],EndMinute[],DayType
3,5,Cumulative Day of Simulation[],Month[],Day of Month[],DST Indicator[1=yes 0=no],DayType  ! When Daily Report Variables Requested
4,2,Cumulative Days of Simulation[],Month[]  ! When Monthly Report Variables Requested
5,1,Cumulative Days of Simulation[] ! When Run Period Report Variables Requested
6,1,Calendar Year of Simulation[] ! When Annual Report Variables Requested
7,1,Environment,Site Outdoor Air Drybulb Temperature [C] !Hourly
314,1,ZONE ONE,Zone Air Temperature [C] !Hourly
315,1,ERV_1_HX,Heat Exchanger Total Heating Rate [W] !Hourly
379,1,ERV_1_FANSUPPLY,Fan Electric Power [W] !Hourly
393,1,ERV_1_FANSUPPLY,Fan Air Mass Flow Rate [kg/s] !Hourly
394,1,ERV_1_FANEXHAUST,Fan Electric Power [W] !Hourly
396,1,ERV_1_FANEXHAUST,Fan Air Mass Flow Rate [kg/s] !Hourly
397,1,RADIATOR,Baseboard Total Heating Rate [W] !Hourly
448,1,RADIATOR,Baseboard Hot Water Mass Flow Rate [kg/s] !Hourly
449,1,RADIATOR,Baseboard Water Inlet Temperature [C] !Hourly
450,1,RADIATOR,Baseboard Water Outlet Temperature [C] !Hourly
587,1,DISTRICT HEATING 1,District Heating Rate [W] !Hourly
588,1,DISTRICT HEATING 1,District Heating Inlet Temperature [C] !Hourly
589,1,DISTRICT HEATING 1,District Heating Outlet Temperature [C] !Hourly
590,1,DISTRICT HEATING 1,District Heating Mass Flow Rate [kg/s] !Hourly
120,1,DistrictHeating:Facility [J] !Hourly
End of Data Dictionary
1,ANNUAL SIM 1,  59.65,  17.95,   1.00,  61.00
2,1, 1,27, 0, 1, 0.00,60.00,Friday
7,-17.0
314,16.248964719301957
315,0.0
379,0.0
393,0.0
394,0.0
396,0.0
397,0.0
448,0.0
449,59.81990096579189
450,59.81990096579189
587,0.0
588,49.92678004911961
589,49.92678004911961
590,0.0
120,43200.0
2,1, 1,27, 0, 2, 0.00,60.00,Friday
7,-17.0
314,16.06113322502337
315,0.0
379,0.0
393,0.0
394,0.0
396,0.0
397,0.0
448,0.0
449,59.81990096579189
450,59.81990096579189
587,0.0
588,49.92678004911961
589,49.92678004911961
590,0.0
120,43200.0
2,1, 1,27, 0, 3, 0.00,60.00,Friday
7,-17.0
314,15.9960244372201
315,0.0
379,0.0
393,0.0
394,0.0
396,0.0
397,0.0
448,0.0
449,59.81990096579189
450,59.81990096579189
587,0.0
588,49.92678004911961
589,49.92678004911961
590,0.0
120,43200.0
2,1, 1,27, 0, 4, 0.00,60.00,Friday
7,-17.0
314,15.866497063235295
315,0.0
379,0.0
393,0.0
394,0.0
396,0.0
397,0.0
448,0.0
449,59.81990096579189
450,59.81990096579189
587,0.0
588,49.92678004911961
589,49.92678004911961
590,0.0
120,43200.0
2,1, 1,27, 0, 5, 0.00,60.00,Friday
7,-16.9
314,15.65167383072721
315,0.0
379,0.0
393,0.0
394,0.0
396,0.0
397,0.0
448,0.0
449,59.81990096579189
450,59.81990096579189
587,0.0
588,49.92678004911961
589,49.92678004911961
590,0.0
120,43200.0
2,1, 1,27, 0, 6, 0.00,60.00,Friday
7,-16.7
314,19.527598763653495
315,0.0
379,0.0
393,0.0
394,0.0
396,0.0
397,1160.863758014933
448,0.038541741418269239
449,59.79116472855145
450,49.628185905940558
587,1595.3242440394645
588,49.8881721439861
589,59.83851334830041
590,0.038541741418269239
120,5786367.278542073
2,1, 1,27, 0, 7, 0.00,60.00,Friday
7,-16.6
314,19.987536973337315
315,0.0
379,0.0
393,0.0
394,0.0
396,0.0
397,1052.1121033496122
448,0.04132390953125001
449,59.76556564354547
450,49.868251431957798
587,1687.1369027709975
588,49.9239229691086
589,59.74115529690215
590,0.04132390953125001
120,6275292.8499755919
2,1, 1,27, 0, 8, 0.00,60.00,Friday
7,-15.8
314,20.101490695769987
315,0.0
379,0.0
393,0.0
394,0.0
396,0.0
397,971.4237485310366
448,0.03648065359375001
449,59.821779456414969
450,49.71906151716166
587,1544.4171257557587
588,49.874314325888978
589,60.0
590,0.03648065359375001
120,5912701.652720731
2,1, 1,27, 0, 9, 0.00,60.00,Friday
7,-15.0
314,17.774071069564678
315,0.0
379,0.0
393,0.0
394,0.0
396,0.0
397,1137.8945262408229
448,0.0499949
449,59.768741930242139
450,49.98453256780376
587,1999.9999999999998
588,49.93613686844408
589,59.504231253985427
590,0.0499949
120,7502400.0
2,1, 1,27, 0,10, 0.00,60.00,Friday
7,-14.2
314,17.604558501992089
315,0.0
379,0.0
393,0.0
394,0.0
396,0.0
397,1298.0521933261125
448,0.0499949
449,59.63754413685503
450,49.63528389037438
587,2000.0
588,49.868844450506298
589,59.43696963556865
590,0.0499949
120,7430400.0
2,1, 1,27, 0,11, 0.00,60.00,Friday
7,-13.1
314,18.231660018230178
315,0.0
379,0.0
393,0.0
394,0.0
396,0.0
397,1277.3978656727927
448,0.0499949
449,59.53287427525565
450,49.758812449029267
587,2000.0
588,49.81909715072264
589,59.38724510509911
590,0.0499949
120,7394400.0
2,1, 1,27, 0,12, 0.00,60.00,Friday
7,-12.1
314,18.632165865231856
315,0.0
379,0.0
393,0.0
394,0.0
396,0.0
397,1255.1457178428857
448,0.0499949
449,59.472703815730188
450,49.86412752362525
587,2000.0
588,49.84667832275865
589,59.41481365323666
590,0.0499949
120,7437600.0
2,1, 1,27, 0,13, 0.00,60.00,Friday
7,-11.0
314,18.825719063441605
315,0.0
379,0.0
393,0.0
394,0.0
396,0.0
397,1235.179801041094
448,0.0499949
449,59.46275176644265
450,49.93151106104516
587,2000.0
588,49.906074629711039
589,59.47418277460999
590,0.0499949
120,7495200.0
2,1, 1,27, 0,14, 0.00,60.00,Friday
7,-10.7
314,18.73941365761179
315,0.0
379,0.0
393,0.0
394,0.0
396,0.0
397,1230.8625283238605
448,0.0499949
449,59.48120270700944
450,49.99732675647396
587,2000.0
588,49.963364796408587
589,59.53144671985472
590,0.0499949
120,7452000.0
2,1, 1,27, 0,15, 0.00,60.00,Friday
7,-10.5
314,18.635046927139
315,0.0
379,0.0
393,0.0
394,0.0
396,0.0
397,1228.3558398634136
448,0.0499949
449,59.514665983655998
450,50.00941954761786
587,2000.0
588,50.0111778671566
589,59.57923279086473
590,0.0499949
120,7444800.0
2,1, 1,27, 0,16, 0.00,60.00,Friday
7,-10.2
314,18.57764321331926
315,0.0
379,0.0
393,0.0
394,0.0
396,0.0
397,1233.044248654347
448,0.0499949
449,59.550379983069387
450,50.01332201762861
587,2000.0
588,50.040843425146189
589,59.608871193572898
590,0.0499949
120,7408800.0
2,1, 1,27, 0,17, 0.00,60.00,Friday
7,-9.8
314,18.63833460246151
315,0.0
379,0.0
393,0.0
394,0.0
396,0.0
397,1236.478990264762
448,0.0499949
449,59.58108813065599
450,50.02267191940146
587,2000.0
588,50.060236298667039
589,59.6282463153135
590,0.0499949
120,7430400.0
2,1, 1,27, 0,18, 0.00,60.00,Friday
7,-9.4
314,19.126075511940443
315,0.0
379,0.0
393,0.0
394,0.0
396,0.0
397,1241.4900495623287
448,0.0499949
449,59.60808670282
450,50.09193346249836
587,2000.0
588,50.08543876320702
589,59.653425710219298
590,0.0499949
120,7560000.0
2,1, 1,27, 0,19, 0.00,60.00,Friday
7,-9.0
314,20.718401019876727
315,0.0
379,0.0
393,0.0
394,0.0
396,0.0
397,897.538604964951
448,0.031813160976562507
449,59.68841680071364
450,49.58180036746889
587,1326.732545683964
588,50.02187923577399
589,60.0
590,0.031813160976562507
120,5129037.164462271
2,1, 1,27, 0,20, 0.00,60.00,Friday
7,-8.0
314,20.80367897214686
315,0.0
379,0.0
393,0.0
394,0.0
396,0.0
397,794.6251496695621
448,0.029996940000000004
449,59.78330859043108
450,49.77235276078968
587,1261.0576454908678
588,49.945072149680928
589,59.99999999999999
590,0.029996940000000004
120,4827807.523767124
2,1, 1,27, 0,21, 0.00,60.00,Friday
7,-7.1
314,18.580565321858253
315,0.0
379,0.0
393,0.0
394,0.0
396,0.0
397,0.0
448,0.0
449,59.8199778163595
450,59.8199778163595
587,0.0
588,49.926904564016009
589,49.926904564016009
590,0.0
120,259200.0
2,1, 1,27, 0,22, 0.00,60.00,Friday
7,-6.1
314,18.087703154132968
315,0.0
379,0.0
393,0.0
394,0.0
396,0.0
397,0.0
448,0.0
449,59.819977816359507
450,59.819977816359507
587,0.0
588,49.926904564016009
589,49.926904564016009
590,0.0
120,324000.0
2,1, 1,27, 0,23, 0.00,60.00,Friday
7,-5.7
314,17.618219210964797
315,0.0
379,0.0
393,0.0
394,0.0
396,0.0
397,0.0
448,0.0
449,59.819977816359507
450,59.819977816359507
587,0.0
588,49.926904564016009
589,49.926904564016009
590,0.0
120,216000.0
2,1, 1,27, 0,24, 0.00,60.00,Friday
7,-5.4
314,17.19483643748127
315,0.0
379,0.0
393,0.0
394,0.0
396,0.0
397,0.0
448,0.0
449,59.819977816359507
450,59.819977816359507
587,0.0
588,49.926904564016009
589,49.926904564016009
590,0.0
120,57600.0
End of Data
 Number of Records Written=         384
