Program Version,EnergyPlus, Version 8.9.0-40101eaafd, YMD=2018.12.26 20:07
1,5,Environment Title[],Latitude[deg],Longitude[deg],Time Zone[],Elevation[m]
2,8,Day of Simulation[],Month[],Day of Month[],DST Indicator[1=yes 0=no],Hour[],StartMinute[],EndMinute[],DayType
3,5,Cumulative Day of Simulation[],Month[],Day of Month[],DST Indicator[1=yes 0=no],DayType  ! When Daily Report Variables Requested
4,2,Cumulative Days of Simulation[],Month[]  ! When Monthly Report Variables Requested
5,1,Cumulative Days of Simulation[] ! When Run Period Report Variables Requested
6,1,Calendar Year of Simulation[] ! When Annual Report Variables Requested
7,1,Environment,Site Outdoor Air Drybulb Temperature [C] !Hourly
191,1,ZONE ONE,Zone Mean Air Temperature [C] !Hourly
315,1,ERV_1_HX,Heat Exchanger Total Heating Rate [W] !Hourly
379,1,ERV_1_FANSUPPLY,Fan Electric Power [W] !Hourly
393,1,ERV_1_FANSUPPLY,Fan Air Mass Flow Rate [kg/s] !Hourly
394,1,ERV_1_FANEXHAUST,Fan Electric Power [W] !Hourly
396,1,ERV_1_FANEXHAUST,Fan Air Mass Flow Rate [kg/s] !Hourly
397,1,RADIATOR,Baseboard Total Heating Rate [W] !Hourly
448,1,RADIATOR,Baseboard Hot Water Mass Flow Rate [kg/s] !Hourly
449,1,RADIATOR,Baseboard Water Inlet Temperature [C] !Hourly
450,1,RADIATOR,Baseboard Water Outlet Temperature [C] !Hourly
587,1,DISTRICT HEATING 1,District Heating Rate [W] !Hourly
588,1,DISTRICT HEATING 1,District Heating Inlet Temperature [C] !Hourly
589,1,DISTRICT HEATING 1,District Heating Outlet Temperature [C] !Hourly
590,1,DISTRICT HEATING 1,District Heating Mass Flow Rate [kg/s] !Hourly
120,1,DistrictHeating:Facility [J] !Hourly
End of Data Dictionary
1,ANNUAL SIM 1,  59.65,  17.95,   1.00,  61.00
2,1, 1,27, 0, 1, 0.00,60.00,Friday
7,-12.166666666666666
191,20.460891547640477
315,2235.962342074415
379,6.666666666666667
393,0.0478249747104375
394,5.0
396,0.035868731032828119
397,795.9627736791681
448,0.029996940000000004
449,59.9039459696404
450,49.60175082977434
587,1305.3811386726866
588,49.59148677656139
589,60.0
590,0.029996940000000004
120,4742572.099221671
2,1, 1,27, 0, 2, 0.00,60.00,Friday
7,-17.0
191,20.111927600062246
315,2393.3139149082203
379,6.666666666666667
393,0.0478249747104375
394,5.0
396,0.035868731032828119
397,802.6538653620488
448,0.029996940000000004
449,59.932985376994398
450,49.50825731796735
587,1304.9836672595436
588,49.5946576133265
589,60.0
590,0.029996940000000004
120,4741141.202134357
2,1, 1,27, 0, 3, 0.00,60.00,Friday
7,-17.0
191,20.094843108129078
315,2373.225984081161
379,6.666666666666667
393,0.0478249747104375
394,5.0
396,0.035868731032828119
397,803.2344449019319
448,0.029996940000000004
449,59.95324548402841
450,49.51983132623415
587,1305.5639281609854
588,49.59002857360519
589,60.0
590,0.029996940000000004
120,4743230.141379547
2,1, 1,27, 0, 4, 0.00,60.00,Friday
7,-17.0
191,20.08418469693964
315,2361.600865675258
379,6.666666666666667
393,0.0478249747104375
394,5.0
396,0.035868731032828119
397,803.5915231253085
448,0.029996940000000004
449,59.96738048106973
450,49.529336310746327
587,1305.5436164253297
588,49.5901906108141
589,60.0
590,0.029996940000000004
120,4743157.019131186
2,1, 1,27, 0, 5, 0.00,60.00,Friday
7,-16.941666666666668
191,20.028515276251377
315,2351.049444188062
379,6.666666666666667
393,0.0478249747104375
394,5.0
396,0.035868731032828119
397,809.1296005768772
448,0.030185722825520835
449,59.97725101545066
450,49.53443246509002
587,1313.5175510115748
588,49.59210773960357
589,60.0
590,0.030185722825520835
120,4771863.183641669
2,1, 1,27, 0, 6, 0.00,60.00,Friday
7,-16.783333333333336
191,20.013976073282895
315,2339.2695156648133
379,6.666666666666667
393,0.0478249747104375
394,5.0
396,0.035868731032828119
397,825.3276078765572
448,0.030882266354166675
449,59.98422910700226
450,49.566525767434949
587,1342.8792202393827
588,49.5994416639033
589,60.0
590,0.030882266354166675
120,4877565.192861778
2,1, 1,27, 0, 7, 0.00,60.00,Friday
7,-16.641666666666667
191,20.315630926318197
315,2341.687764096634
379,6.666666666666667
393,0.0478249747104375
394,5.0
396,0.035868731032828119
397,801.294804407302
448,0.029996940000000004
449,59.98906443606463
450,49.59247425798981
587,1302.852245163679
588,49.611661045887029
589,60.0
590,0.029996940000000004
120,4891868.0825892449
2,1, 1,27, 0, 8, 0.00,60.00,Friday
7,-16.133333333333338
191,20.208209026677154
315,2287.7931700585304
379,6.666666666666667
393,0.0478249747104375
394,5.0
396,0.035868731032828119
397,800.9815440396665
448,0.029996940000000004
449,59.99237051593005
450,49.595720691585409
587,1300.595774082156
588,49.62966202968363
589,60.0
590,0.029996940000000004
120,5034944.786695761
2,1, 1,27, 0, 9, 0.00,60.00,Friday
7,-15.333333333333334
191,17.806394491568907
315,1902.8054640549115
379,6.666666666666667
393,0.0478249747104375
394,5.0
396,0.035868731032828119
397,1249.8705529024153
448,0.0499949
449,59.8231950978664
450,49.98107843391264
587,2000.0
588,49.758850747464808
589,59.327026276777079
590,0.0499949
120,7502400.0
2,1, 1,27, 0,10, 0.00,60.00,Friday
7,-14.533333333333334
191,17.20469186346672
315,1493.085415453357
379,6.666666666666667
393,0.0478249747104375
394,5.0
396,0.035868731032828119
397,1271.5100344433986
448,0.0499949
449,59.61434565422382
450,49.67874747594241
587,2000.0
588,49.793705065105289
589,59.36186464147019
590,0.0499949
120,7430400.0
2,1, 1,27, 0,11, 0.00,60.00,Friday
7,-13.558333333333332
191,17.367409240938316
315,1269.8921708779387
379,6.666666666666667
393,0.0478249747104375
394,5.0
396,0.035868731032828119
397,1259.9578567688206
448,0.0499949
449,59.49220947987769
450,49.64335986646464
587,2000.0
588,49.76071048506373
589,59.328885163127669
590,0.0499949
120,7394400.0
2,1, 1,27, 0,12, 0.00,60.00,Friday
7,-12.516666666666666
191,17.640697732549147
315,1162.8325642986156
379,6.666666666666667
393,0.0478249747104375
394,5.0
396,0.035868731032828119
397,1247.2879833857696
448,0.0499949
449,59.411993575149917
450,49.65126638549767
587,2000.0
588,49.737386203331
589,59.30557155700237
590,0.0499949
120,7437600.0
2,1, 1,27, 0,13, 0.00,60.00,Friday
7,-11.458333333333334
191,17.883116021905708
315,1102.916934462574
379,6.666666666666667
393,0.0478249747104375
394,5.0
396,0.035868731032828119
397,1237.040332582086
448,0.0499949
449,59.36233881218056
450,49.67322298258856
587,2000.0
588,49.73293518906983
589,59.301122579989208
590,0.0499949
120,7495200.0
2,1, 1,27, 0,14, 0.00,60.00,Friday
7,-10.825000000000001
191,17.889889576582765
315,1074.206312944584
379,6.666666666666667
393,0.0478249747104375
394,5.0
396,0.035868731032828119
397,1233.8554253870373
448,0.0499949
449,59.33624504052879
450,49.670974536057659
587,2000.0
588,49.73817628810255
589,59.30636128014865
590,0.0499949
120,7452000.0
2,1, 1,27, 0,15, 0.00,60.00,Friday
7,-10.583333333333334
191,17.80176870782647
315,1060.7720419711234
379,6.666666666666667
393,0.0478249747104375
394,5.0
396,0.035868731032828119
397,1237.178725759494
448,0.0499949
449,59.320804897234037
450,49.636733293672318
587,2000.0
588,49.7282852303285
589,59.29647474955514
590,0.0499949
120,7444800.0
2,1, 1,27, 0,16, 0.00,60.00,Friday
7,-10.325000000000001
191,17.710044996021165
315,1047.6824947695632
379,6.666666666666667
393,0.0478249747104375
394,5.0
396,0.035868731032828119
397,1240.2267393386849
448,0.0499949
449,59.30511680299679
450,49.60284155703124
587,2000.0
588,49.70803780854495
589,59.2762365951185
590,0.0499949
120,7408800.0
2,1, 1,27, 0,17, 0.00,60.00,Friday
7,-9.966666666666667
191,17.697126319477716
315,1032.976676419146
379,6.666666666666667
393,0.0478249747104375
394,5.0
396,0.035868731032828119
397,1240.7645640607025
448,0.0499949
449,59.28596500857949
450,49.58019132938582
587,2000.0
588,49.68356563765309
589,59.251775625285628
590,0.0499949
120,7430400.0
2,1, 1,27, 0,18, 0.00,60.00,Friday
7,-9.566666666666669
191,19.04632854555982
315,1147.3549364177668
379,6.666666666666667
393,0.0478249747104375
394,5.0
396,0.035868731032828119
397,1210.3157076995983
448,0.0499949
449,59.27376506961817
450,49.83965313303762
587,2000.0
588,49.71910369230654
589,59.287297413996778
590,0.0499949
120,7560000.0
2,1, 1,27, 0,19, 0.00,60.00,Friday
7,-9.166666666666666
191,20.212728310723617
315,1364.7405399790887
379,6.666666666666667
393,0.0478249747104375
394,5.0
396,0.035868731032828119
397,807.5673617328608
448,0.031205584066840279
449,59.38924092578676
450,49.27923771065559
587,1333.9843132303588
588,49.715398484890908
589,59.96420247952872
590,0.031205584066840279
120,5155143.527629292
2,1, 1,27, 0,20, 0.00,60.00,Friday
7,-8.416666666666666
191,20.53258878840495
315,1604.8662575022645
379,6.666666666666667
393,0.0478249747104375
394,5.0
396,0.035868731032828119
397,783.2767319293679
448,0.029996940000000004
449,59.57377441522024
450,49.41586288418406
587,1301.5122409892188
588,49.62235091538255
589,60.0
590,0.029996940000000004
120,4973444.067561187
2,1, 1,27, 0,21, 0.00,60.00,Friday
7,-7.4750000000000009
191,20.721352362481214
315,1788.4541674140808
379,6.666666666666667
393,0.0478249747104375
394,5.0
396,0.035868731032828119
397,785.8738916330818
448,0.029996940000000004
449,59.70263249993338
450,49.51978162163608
587,1304.7304134155722
588,49.59667794905773
589,60.0
590,0.029996940000000004
120,4956229.48829606
2,1, 1,27, 0,22, 0.00,60.00,Friday
7,-6.516666666666667
191,20.40267233770981
315,1871.4316817040765
379,6.666666666666667
393,0.0478249747104375
394,5.0
396,0.035868731032828119
397,508.8050874022071
448,0.019164711666666668
449,59.78229572396871
450,53.19312750670873
587,833.828471145751
588,49.59256328691489
589,56.24113017224429
590,0.019164711666666668
120,3325782.496124703
2,1, 1,27, 0,23, 0.00,60.00,Friday
7,-5.866666666666667
191,20.290852103164764
315,1897.3221944804798
379,6.666666666666667
393,0.0478249747104375
394,5.0
396,0.035868731032828119
397,535.3501842090218
448,0.019997960000000003
449,59.82846778712125
450,52.91036832386405
587,871.7019269875359
588,49.573383814442959
589,56.523942760616957
590,0.019997960000000003
120,3354126.937155129
2,1, 1,27, 0,24, 0.00,60.00,Friday
7,-5.5249999999999999
191,20.50637879096345
315,1897.0361894081764
379,6.666666666666667
393,0.0478249747104375
394,5.0
396,0.035868731032828119
397,667.0028019391581
448,0.024997450000000006
449,59.865971557528109
450,51.23549666918577
587,1090.4132308276064
588,49.56659767194423
589,58.261065274569627
590,0.024997450000000006
120,3983087.6309793835
End of Data
 Number of Records Written=         384
