Program Version,EnergyPlus, Version 8.9.0-40101eaafd, YMD=2018.10.17 23:15
1,5,Environment Title[],Latitude[deg],Longitude[deg],Time Zone[],Elevation[m]
2,8,Day of Simulation[],Month[],Day of Month[],DST Indicator[1=yes 0=no],Hour[],StartMinute[],EndMinute[],DayType
3,5,Cumulative Day of Simulation[],Month[],Day of Month[],DST Indicator[1=yes 0=no],DayType  ! When Daily Report Variables Requested
4,2,Cumulative Days of Simulation[],Month[]  ! When Monthly Report Variables Requested
5,1,Cumulative Days of Simulation[] ! When Run Period Report Variables Requested
6,1,Calendar Year of Simulation[] ! When Annual Report Variables Requested
7,1,Environment,Site Outdoor Air Drybulb Temperature [C] !Hourly
167,1,ZONE ONE,Zone Air Temperature [C] !Hourly
230,1,RADIATOR,Baseboard Hot Water Mass Flow Rate [kg/s] !Hourly
231,1,RADIATOR,Baseboard Water Inlet Temperature [C] !Hourly
232,1,RADIATOR,Baseboard Water Outlet Temperature [C] !Hourly
381,1,DISTRICT HEATING 1,District Heating Rate [W] !Hourly
382,1,DISTRICT HEATING 1,District Heating Inlet Temperature [C] !Hourly
383,1,DISTRICT HEATING 1,District Heating Outlet Temperature [C] !Hourly
384,1,DISTRICT HEATING 1,District Heating Mass Flow Rate [kg/s] !Hourly
346,1,DistrictHeating:Facility [J] !Hourly
End of Data Dictionary
1,ANNUAL SIM 1,  41.98, -87.92,  -6.00, 201.00
2,1, 1, 1, 0, 1, 0.00,60.00,Sunday
7,-12.2
167,20.381002836346238
230,0.034996429999999998
231,57.510698686953258
232,45.566082281090469
381,0.0
382,45.66114680564247
383,45.66114680564247
384,0.034996429999999998
346,0.0
2,1, 1, 1, 0, 2, 0.00,60.00,Sunday
7,-11.7
167,19.549581315573645
230,0.034996429999999998
231,53.29195134535946
232,42.553427188439588
381,0.0
382,45.167045102134839
383,45.167045102134839
384,0.034996429999999998
346,0.0
2,1, 1, 1, 0, 3, 0.00,60.00,Sunday
7,-11.1
167,19.354164913171318
230,0.034996429999999998
231,52.40251603715798
232,41.79811755116759
381,1695.9694218139794
382,44.06755536106509
383,55.66114680564247
384,0.034996429999999998
346,6105489.918530325
2,1, 1, 1, 0, 4, 0.00,60.00,Sunday
7,-11.1
167,19.2121949451445
230,0.034996429999999998
231,53.42943342959047
232,42.42508666047386
381,1714.7912010124642
382,43.444788591147318
383,55.16704510213484
384,0.034996429999999998
346,6173248.323644871
2,1, 1, 1, 0, 5, 0.00,60.00,Sunday
7,-10.6
167,19.220308683296947
230,0.034996429999999998
231,53.82365719297626
232,42.672575958142228
381,1595.1977871399517
382,43.16283551204
383,54.06755536106509
384,0.034996429999999998
346,5742712.033703826
2,1, 1, 1, 0, 6, 0.00,60.00,Sunday
7,-10.6
167,19.247265723207119
230,0.034996429999999998
231,53.79305951415252
232,42.65442241199195
381,1525.9091385039635
382,43.01372367581397
383,53.44478859114733
384,0.034996429999999998
346,5493272.898614269
2,1, 1, 1, 0, 7, 0.00,60.00,Sunday
7,-10.6
167,19.194210494373086
230,0.034996429999999998
231,53.6218960647746
232,42.546934355732179
381,1502.3038989154552
382,42.893135241741237
383,53.16283551204
384,0.034996429999999998
346,5408294.036095639
2,1, 1, 1, 0, 8, 0.00,60.00,Sunday
7,-10.0
167,19.315667743181306
230,0.034996429999999998
231,53.43710599598824
232,42.40442046501548
381,1498.4142059735757
382,42.77061321912445
383,53.01372367581397
384,0.034996429999999998
346,5394291.141504873
2,1, 1, 1, 0, 9, 0.00,60.00,Sunday
7,-8.9
167,20.000634988740779
230,0.02170188774414062
231,53.29500620212249
232,41.0307370473853
381,937.6311644574762
382,42.54335049898309
383,52.89313524174123
384,0.02170188774414062
346,3375472.1920469144
2,1, 1, 1, 0,10, 0.00,60.00,Sunday
7,-6.7
167,20.22887513478921
230,0.013978066279296872
231,53.210779136526067
232,40.147021271527147
381,617.9523218794636
382,42.194366065240057
383,52.77061321912444
384,0.013978066279296872
346,2224628.358766069
2,1, 1, 1, 0,11, 0.00,60.00,Sunday
7,-5.0
167,20.170370849650906
230,0.011568644096679685
231,53.13305353366916
232,39.95082623078072
381,514.7276233277944
382,41.899010616590647
383,52.54335049898309
384,0.011568644096679685
346,1853019.4439800599
2,1, 1, 1, 0,12, 0.00,60.00,Sunday
7,-3.3
167,20.196816467904385
230,0.013132205300292967
231,53.0259293769446
232,40.02234300772382
381,579.064054794901
382,41.645332802562879
383,52.19436606524005
384,0.013132205300292967
346,2084630.5972616438
2,1, 1, 1, 0,13, 0.00,60.00,Sunday
7,-2.2
167,20.209217416884184
230,0.013704656669921874
231,52.87941421312902
232,40.004060236910259
381,600.7351564459232
382,41.41231634429209
383,51.89901061659064
384,0.013704656669921874
346,2162646.563205323
2,1, 1, 1, 0,14, 0.00,60.00,Sunday
7,-1.1
167,20.217572471453445
230,0.014080594882812497
231,52.70901681703383
232,39.9451150202418
381,614.6966426126755
382,41.2014123369057
383,51.64533280256289
384,0.014080594882812497
346,2212907.913405632
2,1, 1, 1, 0,15, 0.00,60.00,Sunday
7,-1.1
167,20.233051306388409
230,0.015105880917968749
231,52.51851298833035
232,39.9415986104966
381,656.8340891221612
382,41.009921227544158
383,51.412316344292097
384,0.015105880917968749
346,2364602.7208397805
2,1, 1, 1, 0,16, 0.00,60.00,Sunday
7,-1.1
167,20.271534582981955
230,0.019001967851562497
231,52.29249743622176
232,40.23598656943354
381,821.7134836397565
382,40.85605365325787
383,51.2014123369057
384,0.019001967851562497
346,2958168.5411031239
2,1, 1, 1, 0,17, 0.00,60.00,Sunday
7,-1.1
167,20.32812145746791
230,0.02460686484375
231,52.01773709196777
232,40.698431256950659
381,1051.0908658091494
382,40.790937763899567
383,51.00992122754415
384,0.02460686484375
346,3783927.1169129379
2,1, 1, 1, 0,18, 0.00,60.00,Sunday
7,-1.7
167,20.384152592587524
230,0.028776361386718749
231,51.71958086091972
232,40.97241901912712
381,1206.495449859129
382,40.82576277641578
383,50.85605365325787
384,0.028776361386718749
346,4343383.619492864
2,1, 1, 1, 0,19, 0.00,60.00,Sunday
7,-2.2
167,20.415409925441688
230,0.03219398150390625
231,51.444754364351748
232,41.15970028059978
381,1328.0165849883526
382,40.92240637568619
383,50.79093776389956
384,0.03219398150390625
346,4780859.705958069
2,1, 1, 1, 0,20, 0.00,60.00,Sunday
7,-1.1
167,20.400107881587766
230,0.03157880988281249
231,51.242210916936858
232,40.97300664929515
381,1298.6697173841455
382,40.98731299276945
383,50.825762776415789
384,0.03157880988281249
346,4675210.982582924
2,1, 1, 1, 0,21, 0.00,60.00,Sunday
7,-1.7
167,20.392238883070303
230,0.030826933457031248
231,51.127633984439928
232,40.81601334433262
381,1281.4757963446757
382,40.97742896015504
383,50.92240637568619
384,0.030826933457031248
346,4613312.866840833
2,1, 1, 1, 0,22, 0.00,60.00,Sunday
7,-1.1
167,20.405814163687933
230,0.03178386708984375
231,51.07427792766421
232,40.8735764645924
381,1332.5926887065411
382,40.95700177428972
383,50.987312992769449
384,0.03178386708984375
346,4797333.679343548
2,1, 1, 1, 0,23, 0.00,60.00,Sunday
7,-1.7
167,20.421544089259397
230,0.033629381953124998
231,51.04433925360534
232,41.03937299233142
381,1405.2840475365492
382,40.98044607362455
383,50.97742896015504
384,0.033629381953124998
346,5059022.571131577
2,1, 1, 1, 0,24, 0.00,60.00,Sunday
7,-1.7
167,20.426989694942784
230,0.0345863155859375
231,51.018178186386659
232,41.11913210069041
381,1434.2051861895557
382,41.0365669795063
383,50.95700177428972
384,0.0345863155859375
346,5163138.6702824
End of Data
 Number of Records Written=         240
