Program Version,EnergyPlus, Version 8.9.0-40101eaafd, YMD=2018.09.25 18:11
1,5,Environment Title[],Latitude[deg],Longitude[deg],Time Zone[],Elevation[m]
2,8,Day of Simulation[],Month[],Day of Month[],DST Indicator[1=yes 0=no],Hour[],StartMinute[],EndMinute[],DayType
3,5,Cumulative Day of Simulation[],Month[],Day of Month[],DST Indicator[1=yes 0=no],DayType  ! When Daily Report Variables Requested
4,2,Cumulative Days of Simulation[],Month[]  ! When Monthly Report Variables Requested
5,1,Cumulative Days of Simulation[] ! When Run Period Report Variables Requested
6,1,Calendar Year of Simulation[] ! When Annual Report Variables Requested
7,1,Environment,Site Outdoor Air Drybulb Temperature [C] !Hourly
167,1,ZONE ONE,Zone Air Temperature [C] !Hourly
230,1,RADIATOR,Baseboard Hot Water Mass Flow Rate [kg/s] !Hourly
231,1,RADIATOR,Baseboard Water Inlet Temperature [C] !Hourly
232,1,RADIATOR,Baseboard Water Outlet Temperature [C] !Hourly
381,1,DISTRICT HEATING 1,District Heating Rate [W] !Hourly
382,1,DISTRICT HEATING 1,District Heating Inlet Temperature [C] !Hourly
383,1,DISTRICT HEATING 1,District Heating Outlet Temperature [C] !Hourly
384,1,DISTRICT HEATING 1,District Heating Mass Flow Rate [kg/s] !Hourly
346,1,DistrictHeating:Facility [J] !Hourly
End of Data Dictionary
1,ANNUAL SIM 1,  41.98, -87.92,  -6.00, 201.00
2,1, 1, 1, 0, 1, 0.00,60.00,Sunday
7,-12.2
167,20.381002836346238
230,0.034996429999999998
231,57.510698686953258
232,45.566082281090469
381,0.0
382,45.66114680564247
383,45.66114680564247
384,0.034996429999999998
346,0.0
2,1, 1, 1, 0, 2, 0.00,60.00,Sunday
7,-11.7
167,19.549581315573645
230,0.034996429999999998
231,53.29195134535946
232,42.553427188439588
381,0.0
382,45.167045102134839
383,45.167045102134839
384,0.034996429999999998
346,0.0
2,1, 1, 1, 0, 3, 0.00,60.00,Sunday
7,-11.1
167,18.788277719360449
230,0.034996429999999998
231,50.27516389341822
232,40.221100185657878
381,0.0
382,43.851672231969008
383,43.851672231969008
384,0.034996429999999998
346,0.0
2,1, 1, 1, 0, 4, 0.00,60.00,Sunday
7,-11.1
167,18.458198572119668
230,0.034996429999999998
231,47.78040814763311
232,38.412133647809948
381,0.0
382,42.27695083481816
383,42.27695083481816
384,0.034996429999999998
346,0.0
2,1, 1, 1, 0, 5, 0.00,60.00,Sunday
7,-10.6
167,17.817206251230759
230,0.034996429999999998
231,45.59963313120747
232,36.76452788018058
381,0.0
382,40.67347271706713
383,40.67347271706713
384,0.034996429999999998
346,0.0
2,1, 1, 1, 0, 6, 0.00,60.00,Sunday
7,-10.6
167,17.412171873077864
230,0.034996429999999998
231,43.61597351885655
232,35.246606053095259
381,0.0
382,39.071619518117007
383,39.071619518117007
384,0.034996429999999998
346,0.0
2,1, 1, 1, 0, 7, 0.00,60.00,Sunday
7,-10.6
167,16.969388293222925
230,0.034996429999999998
231,41.773057038028159
232,33.86423180216199
381,0.0
382,37.52700263303453
383,37.52700263303453
384,0.034996429999999998
346,0.0
2,1, 1, 1, 0, 8, 0.00,60.00,Sunday
7,-10.0
167,16.872200584083559
230,0.034996429999999998
231,40.037699199555607
232,32.571409026285447
381,0.0
382,36.025651214274159
383,36.025651214274159
384,0.034996429999999998
346,0.0
2,1, 1, 1, 0, 9, 0.00,60.00,Sunday
7,-8.9
167,18.570533727241157
230,0.034996429999999998
231,38.43889434706643
232,31.88927458999774
381,0.0
382,34.74267969384863
383,34.74267969384863
384,0.034996429999999998
346,0.0
2,1, 1, 1, 0,10, 0.00,60.00,Sunday
7,-6.7
167,19.92704496843467
230,0.0322896748671875
231,37.015653002107629
232,31.26875827558808
381,0.0
382,33.70963778926078
383,33.70963778926078
384,0.0322896748671875
346,0.0
2,1, 1, 1, 0,11, 0.00,60.00,Sunday
7,-5.0
167,20.20368355732044
230,0.03205727669921875
231,35.83364274857604
232,30.581223026848197
381,0.0
382,32.82458706312521
383,32.82458706312521
384,0.03205727669921875
346,0.0
2,1, 1, 1, 0,12, 0.00,60.00,Sunday
7,-3.3
167,20.059266531012964
230,0.034996429999999998
231,34.68371941123931
232,30.016144669207728
381,0.0
382,32.001012204755379
383,32.001012204755379
384,0.034996429999999998
346,0.0
2,1, 1, 1, 0,13, 0.00,60.00,Sunday
7,-2.2
167,19.83149490726889
230,0.034996429999999998
231,33.6243006682284
232,29.251672633849109
381,0.0
382,31.20231878562017
383,31.20231878562017
384,0.034996429999999998
346,0.0
2,1, 1, 1, 0,14, 0.00,60.00,Sunday
7,-1.1
167,19.639883887496514
230,0.034996429999999998
231,32.656528759399787
232,28.522436504531148
381,0.0
382,30.421819896315094
383,30.421819896315094
384,0.034996429999999998
346,0.0
2,1, 1, 1, 0,15, 0.00,60.00,Sunday
7,-1.1
167,19.38034263551923
230,0.034996429999999998
231,31.79859998123035
232,27.879292273212096
381,47.58732433462204
382,29.674689545283
383,30.000000000000005
384,0.034996429999999998
346,171314.36760463936
2,1, 1, 1, 0,16, 0.00,60.00,Sunday
7,-1.1
167,18.801196817014636
230,0.034996429999999998
231,31.18176439778682
232,27.316081386039806
381,147.69737171930565
382,28.990295457345959
383,30.0
384,0.034996429999999998
346,531710.5381895003
2,1, 1, 1, 0,17, 0.00,60.00,Sunday
7,-1.1
167,18.059795551870314
230,0.034996429999999998
231,30.776474539336485
232,26.791437897524508
381,242.05028868014228
382,28.345219749704606
383,30.0
384,0.034996429999999998
346,871381.0392485123
2,1, 1, 1, 0,18, 0.00,60.00,Sunday
7,-1.7
167,17.254527180034139
230,0.034996429999999998
231,30.510180126738399
232,26.334474634761734
381,329.2375107525652
382,27.74909957432974
383,30.0
384,0.034996429999999998
346,1185255.0387092347
2,1, 1, 1, 0,19, 0.00,60.00,Sunday
7,-2.2
167,17.01184832052485
230,0.034996429999999998
231,30.33521222980631
232,26.09970466768567
381,404.7294987763175
382,27.23291544507211
383,30.0
384,0.034996429999999998
346,1457026.195594743
2,1, 1, 1, 0,20, 0.00,60.00,Sunday
7,-1.1
167,16.851103860830255
230,0.034996429999999998
231,30.220250129557355
232,25.92236906180114
381,463.60557480447405
382,26.830326758741334
383,30.0
384,0.034996429999999998
346,1668980.0692961065
2,1, 1, 1, 0,21, 0.00,60.00,Sunday
7,-1.7
167,16.794064567896514
230,0.034996429999999998
231,30.144714647189514
232,25.859578715014579
381,507.5755173511764
382,26.52965414601692
383,30.0
384,0.034996429999999998
346,1827271.8624642352
2,1, 1, 1, 0,22, 0.00,60.00,Sunday
7,-1.1
167,16.731971136842668
230,0.034996429999999998
231,30.09508429871653
232,25.80756012645848
381,539.3253814645517
382,26.312538756950734
383,30.0
384,0.034996429999999998
346,1941571.3732723862
2,1, 1, 1, 0,23, 0.00,60.00,Sunday
7,-1.7
167,16.595951355819265
230,0.034996429999999998
231,30.06247483608604
232,25.765446638582746
381,562.5293558984796
382,26.15385995010993
383,30.0
384,0.034996429999999998
346,2025105.6812345265
2,1, 1, 1, 0,24, 0.00,60.00,Sunday
7,-1.7
167,16.48000918526624
230,0.034996429999999998
231,30.0410488923688
232,25.70708188435434
381,580.3232934390966
382,26.032175681051887
383,30.000000000000005
384,0.034996429999999998
346,2089163.8563807477
End of Data
 Number of Records Written=         240
