Program Version,EnergyPlus, Version 8.9.0-40101eaafd, YMD=2018.10.17 16:24
1,5,Environment Title[],Latitude[deg],Longitude[deg],Time Zone[],Elevation[m]
2,8,Day of Simulation[],Month[],Day of Month[],DST Indicator[1=yes 0=no],Hour[],StartMinute[],EndMinute[],DayType
3,5,Cumulative Day of Simulation[],Month[],Day of Month[],DST Indicator[1=yes 0=no],DayType  ! When Daily Report Variables Requested
4,2,Cumulative Days of Simulation[],Month[]  ! When Monthly Report Variables Requested
5,1,Cumulative Days of Simulation[] ! When Run Period Report Variables Requested
6,1,Calendar Year of Simulation[] ! When Annual Report Variables Requested
7,1,Environment,Site Outdoor Air Drybulb Temperature [C] !Hourly
167,1,ZONE ONE,Zone Air Temperature [C] !Hourly
230,1,RADIATOR,Baseboard Hot Water Mass Flow Rate [kg/s] !Hourly
231,1,RADIATOR,Baseboard Water Inlet Temperature [C] !Hourly
232,1,RADIATOR,Baseboard Water Outlet Temperature [C] !Hourly
381,1,DISTRICT HEATING 1,District Heating Rate [W] !Hourly
382,1,DISTRICT HEATING 1,District Heating Inlet Temperature [C] !Hourly
383,1,DISTRICT HEATING 1,District Heating Outlet Temperature [C] !Hourly
384,1,DISTRICT HEATING 1,District Heating Mass Flow Rate [kg/s] !Hourly
346,1,DistrictHeating:Facility [J] !Hourly
End of Data Dictionary
1,ANNUAL SIM 1,  41.98, -87.92,  -6.00, 201.00
2,1, 1, 1, 0, 1, 0.00,60.00,Sunday
7,-12.2
167,20.54408113121419
230,0.034723020390625
231,59.11566948307908
232,46.622763811611587
381,1327.5659578949078
382,45.85371793149133
383,55.00000000000001
384,0.034723020390625
346,4779237.448421668
2,1, 1, 1, 0, 2, 0.00,60.00,Sunday
7,-11.7
167,19.869105876676494
230,0.032330686308593748
231,57.75195013981105
232,45.35318183305962
381,1228.4772375366433
382,45.91404075111202
383,55.0
384,0.032330686308593748
346,4422518.055131916
2,1, 1, 1, 0, 3, 0.00,60.00,Sunday
7,-11.1
167,19.768079232220413
230,0.034996429999999998
231,56.82585902621649
232,44.891942983526
381,1365.3433408841968
382,45.666855412812427
383,55.0
384,0.034996429999999998
346,4915236.027183108
2,1, 1, 1, 0, 4, 0.00,60.00,Sunday
7,-11.1
167,19.722821348332329
230,0.034996429999999998
231,56.19967486660616
232,44.46446504977644
381,1412.3978336771418
382,45.34505404918046
383,55.0
384,0.034996429999999998
346,5084632.20123771
2,1, 1, 1, 0, 5, 0.00,60.00,Sunday
7,-10.6
167,19.66595359695857
230,0.034996429999999998
231,55.78824255591563
232,44.17059272021663
381,1461.1668276132123
382,45.01151690650596
383,55.0
384,0.034996429999999998
346,5260200.579407564
2,1, 1, 1, 0, 6, 0.00,60.00,Sunday
7,-10.6
167,19.620943695686078
230,0.034996429999999998
231,55.517912264607257
232,43.9687692573783
381,1505.4978347973683
382,44.70846608857611
383,55.0
384,0.034996429999999998
346,5419792.205270526
2,1, 1, 1, 0, 7, 0.00,60.00,Sunday
7,-10.6
167,19.54315631247156
230,0.034996429999999998
231,55.34029260640341
232,43.8337006490653
381,1542.9601509199435
382,44.45237492201003
383,55.0
384,0.034996429999999998
346,5554656.543311797
2,1, 1, 1, 0, 8, 0.00,60.00,Sunday
7,-10.0
167,19.662911668690826
230,0.034996429999999998
231,55.22358817484394
232,43.72942324283626
381,1573.5249103289293
382,44.24343522732463
383,54.99999999999999
384,0.034996429999999998
346,5664689.677184146
2,1, 1, 1, 0, 9, 0.00,60.00,Sunday
7,-8.9
167,19.999055807428527
230,0.01992472528320312
231,55.15944937275246
232,42.009666220177638
381,921.7462581761469
382,43.92608615333276
383,55.0
384,0.01992472528320312
346,3318286.5294341288
2,1, 1, 1, 0,10, 0.00,60.00,Sunday
7,-6.7
167,20.224811290251027
230,0.013157837451171873
231,55.13103038269632
232,41.24052781244827
381,630.600017123934
382,43.53449522570766
383,55.0
384,0.013157837451171873
346,2270160.0616461627
2,1, 1, 1, 0,11, 0.00,60.00,Sunday
7,-5.0
167,20.163428516621275
230,0.010560446162109376
231,55.11360589793625
232,41.034812661407887
381,519.7529945252649
382,43.22560905590325
383,55.0
384,0.010560446162109376
346,1871110.7802909536
2,1, 1, 1, 0,12, 0.00,60.00,Sunday
7,-3.3
167,20.194063075465498
230,0.01223508001953125
231,55.09910474626823
232,41.176432559743478
381,615.5428744199536
382,42.96419307181128
383,55.0
384,0.01223508001953125
346,2215954.347911833
2,1, 1, 1, 0,13, 0.00,60.00,Sunday
7,-2.2
167,20.211619174917016
230,0.012747723037109374
231,55.08531429752015
232,41.236061126733648
381,653.8750914647571
382,42.72883225784981
383,55.00000000000001
384,0.012747723037109374
346,2353950.3292731258
2,1, 1, 1, 0,14, 0.00,60.00,Sunday
7,-1.1
167,20.21649752376421
230,0.012986956445312498
231,55.07310926912227
232,41.26195023584465
381,677.1289914655168
382,42.52651690390596
383,55.0
384,0.012986956445312498
346,2437664.3692758607
2,1, 1, 1, 0,15, 0.00,60.00,Sunday
7,-1.1
167,20.234322860476778
230,0.013875537675781248
231,55.0622343399889
232,41.35649610268558
381,733.3743366235396
382,42.3555598355636
383,55.0
384,0.013875537675781248
346,2640147.6118447429
2,1, 1, 1, 0,16, 0.00,60.00,Sunday
7,-1.1
167,20.273562463119889
230,0.017224805390624998
231,55.05167171765432
232,41.74733325827056
381,919.0899705387056
382,42.23480594433077
383,54.99999999999999
384,0.017224805390624998
346,3308723.8939393407
2,1, 1, 1, 0,17, 0.00,60.00,Sunday
7,-1.1
167,20.33169985333055
230,0.021872768749999998
231,55.04091066403155
232,42.3170348470931
381,1168.8640089398714
382,42.215494242177609
383,55.0
384,0.021872768749999998
346,4207910.432183537
2,1, 1, 1, 0,18, 0.00,60.00,Sunday
7,-1.7
167,20.38227481803835
230,0.025085331660156246
231,55.03089262672261
232,42.71904593783837
381,1330.5068582178717
382,42.311187253136967
383,55.0
384,0.025085331660156246
346,4789824.689584338
2,1, 1, 1, 0,19, 0.00,60.00,Sunday
7,-2.2
167,20.41638577910251
230,0.027614370546874997
231,55.022535358780618
232,43.03088612038975
381,1444.5176063117137
382,42.48556031255151
383,55.0
384,0.027614370546874997
346,5200263.382722169
2,1, 1, 1, 0,20, 0.00,60.00,Sunday
7,-1.1
167,20.401409770841974
230,0.026862494121093748
231,55.016247607598007
232,42.950303807607507
381,1387.3738179286938
382,42.64419973631438
383,55.0
384,0.026862494121093748
346,4994545.744543298
2,1, 1, 1, 0,21, 0.00,60.00,Sunday
7,-1.7
167,20.38961125784435
230,0.026110617695312499
231,55.011820507620189
232,42.85336098241729
381,1338.9975367505567
382,42.73164454883624
383,55.0
384,0.026110617695312499
346,4820391.132302004
2,1, 1, 1, 0,22, 0.00,60.00,Sunday
7,-1.1
167,20.40597344253831
230,0.026862494121093748
231,55.00860379586645
232,42.93598101789691
381,1370.497574188463
382,42.79449772677731
383,55.0
384,0.026862494121093748
346,4933791.267078467
2,1, 1, 1, 0,23, 0.00,60.00,Sunday
7,-1.7
167,20.420483867505195
230,0.028229542167968748
231,55.00618463938607
232,43.10018216646009
381,1430.4455464387229
382,42.877527337184258
383,55.00000000000001
384,0.028229542167968748
346,5149603.967179403
2,1, 1, 1, 0,24, 0.00,60.00,Sunday
7,-1.7
167,20.42783726390388
230,0.028981418593749997
231,55.004388667098
232,43.191154930405748
381,1456.7065503085726
382,42.97524735034436
383,54.99999999999999
384,0.028981418593749997
346,5244143.581110861
End of Data
 Number of Records Written=         240
