Program Version,EnergyPlus, Version 8.9.0-40101eaafd, YMD=2018.10.17 16:24
1,5,Environment Title[],Latitude[deg],Longitude[deg],Time Zone[],Elevation[m]
2,8,Day of Simulation[],Month[],Day of Month[],DST Indicator[1=yes 0=no],Hour[],StartMinute[],EndMinute[],DayType
3,5,Cumulative Day of Simulation[],Month[],Day of Month[],DST Indicator[1=yes 0=no],DayType  ! When Daily Meters Requested
4,2,Cumulative Days of Simulation[],Month[]  ! When Monthly Meters Requested
5,1,Cumulative Days of Simulation[] ! When Run Period Meters Requested
6,1,Calendar Year of Simulation[] ! When Annual Meters Requested
346,1,DistrictHeating:Facility [J] !Hourly
End of Data Dictionary
1,ANNUAL SIM 1,  41.98, -87.92,  -6.00, 201.00
2,1, 1, 1, 0, 1, 0.00,60.00,Sunday
346,4779237.448421668
2,1, 1, 1, 0, 2, 0.00,60.00,Sunday
346,4422518.055131916
2,1, 1, 1, 0, 3, 0.00,60.00,Sunday
346,4915236.027183108
2,1, 1, 1, 0, 4, 0.00,60.00,Sunday
346,5084632.20123771
2,1, 1, 1, 0, 5, 0.00,60.00,Sunday
346,5260200.579407564
2,1, 1, 1, 0, 6, 0.00,60.00,Sunday
346,5419792.205270526
2,1, 1, 1, 0, 7, 0.00,60.00,Sunday
346,5554656.543311797
2,1, 1, 1, 0, 8, 0.00,60.00,Sunday
346,5664689.677184146
2,1, 1, 1, 0, 9, 0.00,60.00,Sunday
346,3318286.5294341288
2,1, 1, 1, 0,10, 0.00,60.00,Sunday
346,2270160.0616461627
2,1, 1, 1, 0,11, 0.00,60.00,Sunday
346,1871110.7802909536
2,1, 1, 1, 0,12, 0.00,60.00,Sunday
346,2215954.347911833
2,1, 1, 1, 0,13, 0.00,60.00,Sunday
346,2353950.3292731258
2,1, 1, 1, 0,14, 0.00,60.00,Sunday
346,2437664.3692758607
2,1, 1, 1, 0,15, 0.00,60.00,Sunday
346,2640147.6118447429
2,1, 1, 1, 0,16, 0.00,60.00,Sunday
346,3308723.8939393407
2,1, 1, 1, 0,17, 0.00,60.00,Sunday
346,4207910.432183537
2,1, 1, 1, 0,18, 0.00,60.00,Sunday
346,4789824.689584338
2,1, 1, 1, 0,19, 0.00,60.00,Sunday
346,5200263.382722169
2,1, 1, 1, 0,20, 0.00,60.00,Sunday
346,4994545.744543298
2,1, 1, 1, 0,21, 0.00,60.00,Sunday
346,4820391.132302004
2,1, 1, 1, 0,22, 0.00,60.00,Sunday
346,4933791.267078467
2,1, 1, 1, 0,23, 0.00,60.00,Sunday
346,5149603.967179403
2,1, 1, 1, 0,24, 0.00,60.00,Sunday
346,5244143.581110861
End of Data
 Number of Records Written=          24
