Program Version,EnergyPlus, Version 8.9.0-40101eaafd, YMD=2018.12.28 10:29
1,5,Environment Title[],Latitude[deg],Longitude[deg],Time Zone[],Elevation[m]
2,8,Day of Simulation[],Month[],Day of Month[],DST Indicator[1=yes 0=no],Hour[],StartMinute[],EndMinute[],DayType
3,5,Cumulative Day of Simulation[],Month[],Day of Month[],DST Indicator[1=yes 0=no],DayType  ! When Daily Meters Requested
4,2,Cumulative Days of Simulation[],Month[]  ! When Monthly Meters Requested
5,1,Cumulative Days of Simulation[] ! When Run Period Meters Requested
6,1,Calendar Year of Simulation[] ! When Annual Meters Requested
120,1,DistrictHeating:Facility [J] !Hourly
End of Data Dictionary
1,ANNUAL SIM 1,  59.65,  17.95,   1.00,  61.00
2,1, 1,27, 0, 1, 0.00,60.00,Friday
120,43200.0
2,1, 1,27, 0, 2, 0.00,60.00,Friday
120,43200.0
2,1, 1,27, 0, 3, 0.00,60.00,Friday
120,43200.0
2,1, 1,27, 0, 4, 0.00,60.00,Friday
120,43200.0
2,1, 1,27, 0, 5, 0.00,60.00,Friday
120,43200.0
2,1, 1,27, 0, 6, 0.00,60.00,Friday
120,7243200.000000001
2,1, 1,27, 0, 7, 0.00,60.00,Friday
120,7401600.0
2,1, 1,27, 0, 8, 0.00,60.00,Friday
120,5738283.484424252
2,1, 1,27, 0, 9, 0.00,60.00,Friday
120,7112555.283328788
2,1, 1,27, 0,10, 0.00,60.00,Friday
120,7430400.0
2,1, 1,27, 0,11, 0.00,60.00,Friday
120,7106902.157356263
2,1, 1,27, 0,12, 0.00,60.00,Friday
120,6643886.255383265
2,1, 1,27, 0,13, 0.00,60.00,Friday
120,6362904.909477694
2,1, 1,27, 0,14, 0.00,60.00,Friday
120,6653699.433535605
2,1, 1,27, 0,15, 0.00,60.00,Friday
120,6745286.752559575
2,1, 1,27, 0,16, 0.00,60.00,Friday
120,6844132.263248778
2,1, 1,27, 0,17, 0.00,60.00,Friday
120,6721330.32227803
2,1, 1,27, 0,18, 0.00,60.00,Friday
120,5896396.876957754
2,1, 1,27, 0,19, 0.00,60.00,Friday
120,2341201.5976519726
2,1, 1,27, 0,20, 0.00,60.00,Friday
120,1843229.847498287
2,1, 1,27, 0,21, 0.00,60.00,Friday
120,259200.0
2,1, 1,27, 0,22, 0.00,60.00,Friday
120,324000.0
2,1, 1,27, 0,23, 0.00,60.00,Friday
120,216000.0
2,1, 1,27, 0,24, 0.00,60.00,Friday
120,57600.0
End of Data
 Number of Records Written=          24
