Program Version,EnergyPlus, Version 8.9.0-40101eaafd, YMD=2018.12.17 16:00
1,5,Environment Title[],Latitude[deg],Longitude[deg],Time Zone[],Elevation[m]
2,8,Day of Simulation[],Month[],Day of Month[],DST Indicator[1=yes 0=no],Hour[],StartMinute[],EndMinute[],DayType
3,5,Cumulative Day of Simulation[],Month[],Day of Month[],DST Indicator[1=yes 0=no],DayType  ! When Daily Report Variables Requested
4,2,Cumulative Days of Simulation[],Month[]  ! When Monthly Report Variables Requested
5,1,Cumulative Days of Simulation[] ! When Run Period Report Variables Requested
6,1,Calendar Year of Simulation[] ! When Annual Report Variables Requested
7,1,Environment,Site Outdoor Air Drybulb Temperature [C] !Hourly
94,1,ZONE ONE,Zone Air Temperature [C] !Hourly
95,1,RADIATOR,Baseboard Total Heating Rate [W] !Hourly
158,1,RADIATOR,Baseboard Hot Water Mass Flow Rate [kg/s] !Hourly
159,1,RADIATOR,Baseboard Water Inlet Temperature [C] !Hourly
160,1,RADIATOR,Baseboard Water Outlet Temperature [C] !Hourly
198,1,DISTRICT HEATING 1,District Heating Rate [W] !Hourly
199,1,DISTRICT HEATING 1,District Heating Inlet Temperature [C] !Hourly
200,1,DISTRICT HEATING 1,District Heating Outlet Temperature [C] !Hourly
201,1,DISTRICT HEATING 1,District Heating Mass Flow Rate [kg/s] !Hourly
163,1,DistrictHeating:Facility [J] !Hourly
End of Data Dictionary
1,ANNUAL SIM 1,  59.65,  17.95,   1.00,  61.00
2,1, 1,27, 0, 1, 0.00,60.00,Friday
7,-17.0
94,15.451491466980878
95,0.0
158,0.0
159,59.99999959750046
160,59.99999959750046
198,0.0
199,50.135277133090429
200,50.135277133090429
201,0.0
163,0.0
2,1, 1,27, 0, 2, 0.00,60.00,Friday
7,-17.0
94,19.8816462142248
95,1486.5390859117556
158,0.04959455021484376
159,59.931757225700398
160,50.46475157317451
198,1988.9056450170433
199,50.19018178671398
200,59.78252947336132
201,0.04959455021484376
163,7160060.322061355
2,1, 1,27, 0, 3, 0.00,60.00,Friday
7,-17.0
94,19.96609474079813
95,1397.8618055177521
158,0.0499949
159,59.93233052848565
160,50.87288732503195
198,1988.7703236031846
199,50.48610043216628
200,60.0
201,0.0499949
163,7159573.164971464
2,1, 1,27, 0, 4, 0.00,60.00,Friday
7,-17.0
94,19.25978675046757
95,1379.0455250823873
158,0.049994899999999998
159,59.962862206624588
160,50.56777694757708
198,1960.262887361469
199,50.622597043571847
200,59.99999999999999
201,0.049994899999999998
163,7056946.394501288
2,1, 1,27, 0, 5, 0.00,60.00,Friday
7,-16.9
94,19.05024196139328
95,1424.196020962283
158,0.0499949
159,59.97961834685672
160,50.442517516268889
198,1967.4605699804351
199,50.58813411795578
200,60.00000000000001
201,0.0499949
163,7082858.051929566
2,1, 1,27, 0, 6, 0.00,60.00,Friday
7,-16.7
94,17.92660899101135
95,1130.5866487011158
158,0.0389608693359375
159,59.98779030325345
160,49.78548357868025
198,1562.1758683295996
199,50.42348616497833
200,60.0
201,0.0389608693359375
163,5623833.125986558
2,1, 1,27, 0, 7, 0.00,60.00,Friday
7,-16.6
94,17.961837319997409
95,1184.9352320360322
158,0.03742294028320313
159,59.99245165434141
160,49.565357594280779
198,1534.5081737811513
199,50.1958818947509
200,60.00000000000001
201,0.03742294028320313
163,5524229.425612144
2,1, 1,27, 0, 8, 0.00,60.00,Friday
7,-15.8
94,17.984044073932308
95,1237.835705233469
158,0.04016517356770834
159,59.99528032771563
160,49.70987737692842
198,1675.4099614648576
199,50.02325345201156
200,60.0
201,0.04016517356770834
163,6031475.861273487
2,1, 1,27, 0, 9, 0.00,60.00,Friday
7,-15.0
94,17.98040513243788
95,1188.8036579471104
158,0.037707741959635419
159,59.997027020723027
160,49.5871395905705
198,1592.5390685128739
199,49.900117741720809
200,60.0
201,0.037707741959635419
163,5733140.646646346
2,1, 1,27, 0,10, 0.00,60.00,Friday
7,-14.2
94,17.96438586098778
95,1099.338000396426
158,0.035103840917968757
159,59.99808787243782
160,49.45279503054453
198,1497.9842825018295
199,49.79433943063415
200,60.0
201,0.035103840917968757
163,5392743.417006586
2,1, 1,27, 0,11, 0.00,60.00,Friday
7,-13.1
94,17.96500408190855
95,966.4574301755373
158,0.029415944580078125
159,59.99870425701683
160,49.19175790956689
198,1271.1889048672929
199,49.66529032947102
200,60.0
201,0.029415944580078125
163,4576280.057522254
2,1, 1,27, 0,12, 0.00,60.00,Friday
7,-12.1
94,17.97197525851511
95,883.5471763932907
158,0.026535379052734378
159,59.999077658215188
160,49.0684655051401
198,1161.1472323213695
199,49.53376928076076
200,60.0
201,0.026535379052734378
163,4180130.0363569308
2,1, 1,27, 0,13, 0.00,60.00,Friday
7,-11.0
94,18.982037856875814
95,1057.2964910302424
158,0.03245111673177083
159,59.928323309061898
160,49.51954002551573
198,1388.2080817832016
199,49.53442029771078
200,59.84665659134615
201,0.03245111673177083
163,4997549.094419526
2,1, 1,27, 0,14, 0.00,60.00,Friday
7,-10.7
94,19.930156569445655
95,1249.154907679063
158,0.0405232099609375
159,59.87454120119502
160,50.06974962610874
198,1714.1508774066804
199,49.67960866775333
200,59.83102120156274
201,0.0405232099609375
163,6170943.15866405
2,1, 1,27, 0,15, 0.00,60.00,Friday
7,-10.5
94,20.539221969211
95,1399.7377023963795
158,0.049994899999999998
159,59.79550564093249
160,50.59371859670132
198,2000.0
199,49.98440200817659
200,59.55245678347934
201,0.049994899999999998
163,7200000.0
2,1, 1,27, 0,16, 0.00,60.00,Friday
7,-10.2
94,20.555151138479944
95,1340.9183865596233
158,0.04882314453125
159,59.808922428877938
160,50.67642386008318
198,1977.8764906962074
199,50.31096927542128
200,60.0
201,0.04882314453125
163,7120355.3665063469
2,1, 1,27, 0,17, 0.00,60.00,Friday
7,-9.8
94,18.895709814672
95,946.5664928879785
158,0.035714130224609379
159,59.8783727834753
160,49.79836777999484
198,1438.199628668794
199,50.35674747678397
200,59.98691170208924
201,0.035714130224609379
163,5177518.663207659
2,1, 1,27, 0,18, 0.00,60.00,Friday
7,-9.4
94,17.938433082931185
95,842.5410703003827
158,0.028561539550781249
159,59.915308649424208
160,49.239267137376518
198,1179.6902918717112
199,50.14133591895105
200,60.0
201,0.028561539550781249
163,4246885.0507381609
2,1, 1,27, 0,19, 0.00,60.00,Friday
7,-9.0
94,17.967127171495
95,875.6800108315756
158,0.026877141064453125
159,59.940479798360929
160,49.032664680645158
198,1137.0513086094577
199,49.887361102477658
200,60.0
201,0.026877141064453125
163,4093384.710994048
2,1, 1,27, 0,20, 0.00,60.00,Friday
7,-8.0
94,18.960457034927214
95,1159.454780242853
158,0.036177950097656248
159,59.91171072495354
160,49.65901350269541
198,1522.694590086068
199,49.78597903425789
200,59.89377928410008
201,0.036177950097656248
163,5481700.524309844
2,1, 1,27, 0,21, 0.00,60.00,Friday
7,-7.1
94,19.90486659632523
95,1325.5092876121512
158,0.04386759536132812
159,59.876703336864249
160,50.213696710666457
198,1822.2764649148887
199,49.89196960114285
200,59.8449935028585
201,0.04386759536132812
163,6560195.273693599
2,1, 1,27, 0,22, 0.00,60.00,Friday
7,-6.1
94,19.98424114849454
95,1210.962948548274
158,0.041727514192708339
159,59.918242282943328
160,50.21105502147026
198,1737.7079677680397
199,50.03999133006118
200,60.0
201,0.041727514192708339
163,6255748.683964943
2,1, 1,27, 0,23, 0.00,60.00,Friday
7,-5.7
94,18.935841435409964
95,873.0647714160732
158,0.029904176025390626
159,59.94590995767021
160,49.575485010520527
198,1248.2269898472823
199,50.02345601148146
200,60.0
201,0.029904176025390626
163,4493617.163450217
2,1, 1,27, 0,24, 0.00,60.00,Friday
7,-5.4
94,17.94937141702959
95,660.8634689319686
158,0.022213513612874347
159,59.96087781452634
160,49.008660220129979
198,940.1489537769255
199,49.88414170241148
200,60.0
201,0.022213513612874347
163,3384536.233596932
End of Data
 Number of Records Written=         264
