Program Version,EnergyPlus, Version 8.9.0-40101eaafd, YMD=2018.12.28 10:29
1,5,Environment Title[],Latitude[deg],Longitude[deg],Time Zone[],Elevation[m]
2,8,Day of Simulation[],Month[],Day of Month[],DST Indicator[1=yes 0=no],Hour[],StartMinute[],EndMinute[],DayType
3,5,Cumulative Day of Simulation[],Month[],Day of Month[],DST Indicator[1=yes 0=no],DayType  ! When Daily Report Variables Requested
4,2,Cumulative Days of Simulation[],Month[]  ! When Monthly Report Variables Requested
5,1,Cumulative Days of Simulation[] ! When Run Period Report Variables Requested
6,1,Calendar Year of Simulation[] ! When Annual Report Variables Requested
7,1,Environment,Site Outdoor Air Drybulb Temperature [C] !Hourly
314,1,ZONE ONE,Zone Air Temperature [C] !Hourly
315,1,ERV_1_HX,Heat Exchanger Total Heating Rate [W] !Hourly
379,1,ERV_1_FANSUPPLY,Fan Electric Power [W] !Hourly
393,1,ERV_1_FANSUPPLY,Fan Air Mass Flow Rate [kg/s] !Hourly
394,1,ERV_1_FANEXHAUST,Fan Electric Power [W] !Hourly
396,1,ERV_1_FANEXHAUST,Fan Air Mass Flow Rate [kg/s] !Hourly
397,1,RADIATOR,Baseboard Total Heating Rate [W] !Hourly
448,1,RADIATOR,Baseboard Hot Water Mass Flow Rate [kg/s] !Hourly
449,1,RADIATOR,Baseboard Water Inlet Temperature [C] !Hourly
450,1,RADIATOR,Baseboard Water Outlet Temperature [C] !Hourly
587,1,DISTRICT HEATING 1,District Heating Rate [W] !Hourly
588,1,DISTRICT HEATING 1,District Heating Inlet Temperature [C] !Hourly
589,1,DISTRICT HEATING 1,District Heating Outlet Temperature [C] !Hourly
590,1,DISTRICT HEATING 1,District Heating Mass Flow Rate [kg/s] !Hourly
120,1,DistrictHeating:Facility [J] !Hourly
End of Data Dictionary
1,ANNUAL SIM 1,  59.65,  17.95,   1.00,  61.00
2,1, 1,27, 0, 1, 0.00,60.00,Friday
7,-17.0
314,16.248964719301957
315,0.0
379,0.0
393,0.0
394,0.0
396,0.0
397,0.0
448,0.0
449,59.81990096579189
450,59.81990096579189
587,0.0
588,49.92678004911961
589,49.92678004911961
590,0.0
120,43200.0
2,1, 1,27, 0, 2, 0.00,60.00,Friday
7,-17.0
314,16.06113322502337
315,0.0
379,0.0
393,0.0
394,0.0
396,0.0
397,0.0
448,0.0
449,59.81990096579189
450,59.81990096579189
587,0.0
588,49.92678004911961
589,49.92678004911961
590,0.0
120,43200.0
2,1, 1,27, 0, 3, 0.00,60.00,Friday
7,-17.0
314,15.9960244372201
315,0.0
379,0.0
393,0.0
394,0.0
396,0.0
397,0.0
448,0.0
449,59.81990096579189
450,59.81990096579189
587,0.0
588,49.92678004911961
589,49.92678004911961
590,0.0
120,43200.0
2,1, 1,27, 0, 4, 0.00,60.00,Friday
7,-17.0
314,15.866497063235295
315,0.0
379,0.0
393,0.0
394,0.0
396,0.0
397,0.0
448,0.0
449,59.81990096579189
450,59.81990096579189
587,0.0
588,49.92678004911961
589,49.92678004911961
590,0.0
120,43200.0
2,1, 1,27, 0, 5, 0.00,60.00,Friday
7,-16.9
314,15.65167383072721
315,0.0
379,0.0
393,0.0
394,0.0
396,0.0
397,0.0
448,0.0
449,59.81990096579189
450,59.81990096579189
587,0.0
588,49.92678004911961
589,49.92678004911961
590,0.0
120,43200.0
2,1, 1,27, 0, 6, 0.00,60.00,Friday
7,-16.7
314,20.260458714602174
315,0.0
379,0.0
393,0.0
394,0.0
396,0.0
397,1396.086674167999
448,0.04999489999999999
449,59.74616121523407
450,50.322322821855419
587,2000.0
588,49.99815823866646
589,59.566207274234148
590,0.04999489999999999
120,7243200.000000001
2,1, 1,27, 0, 7, 0.00,60.00,Friday
7,-16.6
314,20.09342835767524
315,0.0
379,0.0
393,0.0
394,0.0
396,0.0
397,1118.2048710430631
448,0.049994899999999998
449,59.729158809688019
450,50.36936483918694
587,2000.0
588,50.22887103935901
589,59.79672669459423
590,0.049994899999999998
120,7401600.0
2,1, 1,27, 0, 8, 0.00,60.00,Friday
7,-15.8
314,20.09814522511091
315,0.0
379,0.0
393,0.0
394,0.0
396,0.0
397,966.5276566885282
448,0.03648065359375001
449,59.7995937771714
450,49.735874796784148
587,1495.9676345622922
588,50.19220378456623
589,60.00000000000001
590,0.03648065359375001
120,5738283.484424252
2,1, 1,27, 0, 9, 0.00,60.00,Friday
7,-15.0
314,17.563600369882516
315,0.0
379,0.0
393,0.0
394,0.0
396,0.0
397,1065.6558622719972
448,0.047138048571428569
449,59.80965238199277
450,49.81121714053092
587,1891.7098009246633
588,50.069546380149549
589,59.68535199602177
590,0.047138048571428569
120,7112555.283328788
2,1, 1,27, 0,10, 0.00,60.00,Friday
7,-14.2
314,17.582624377188428
315,0.0
379,0.0
393,0.0
394,0.0
396,0.0
397,1298.8294157231098
448,0.0499949
449,59.704470327976888
450,49.7003422245033
587,2000.0
588,49.95504181779934
589,59.5231275506266
590,0.0499949
120,7430400.0
2,1, 1,27, 0,11, 0.00,60.00,Friday
7,-13.1
314,18.017429586722213
315,0.0
379,0.0
393,0.0
394,0.0
396,0.0
397,1194.7507038127965
448,0.045503170703125
449,59.721601596527118
450,49.660425645625497
587,1920.1394881545175
588,49.86677992063605
589,59.962311165757977
590,0.045503170703125
120,7106902.157356263
2,1, 1,27, 0,12, 0.00,60.00,Friday
7,-12.1
314,18.093752734340304
315,0.0
379,0.0
393,0.0
394,0.0
396,0.0
397,1102.187017499172
448,0.041714494687500009
449,59.83081502509967
450,49.617945462088758
587,1779.5239598286848
588,49.796694062567379
589,60.0
590,0.041714494687500009
120,6643886.255383265
2,1, 1,27, 0,13, 0.00,60.00,Friday
7,-11.0
314,18.090320017992956
315,0.0
379,0.0
393,0.0
394,0.0
396,0.0
397,1050.8024216012777
448,0.03929286671875001
449,59.89600226663095
450,49.55563573527202
587,1685.4735859660261
588,49.740328327924888
589,60.0
590,0.03929286671875001
120,6362904.909477694
2,1, 1,27, 0,14, 0.00,60.00,Friday
7,-10.7
314,18.100930409241906
315,0.0
379,0.0
393,0.0
394,0.0
396,0.0
397,1096.4541537825571
448,0.0414020265625
449,59.935832824510459
450,49.70858710168045
587,1778.2498426487791
588,49.72701431461878
589,60.00000000000001
590,0.0414020265625
120,6653699.433535605
2,1, 1,27, 0,15, 0.00,60.00,Friday
7,-10.5
314,18.09945727439891
315,0.0
379,0.0
393,0.0
394,0.0
396,0.0
397,1111.656818232519
448,0.042183196875
449,59.961147094768907
450,49.78367869354231
587,1805.690764599882
588,49.76168068242014
589,60.00000000000001
590,0.042183196875
120,6745286.752559575
2,1, 1,27, 0,16, 0.00,60.00,Friday
7,-10.2
314,18.100142571870774
315,0.0
379,0.0
393,0.0
394,0.0
396,0.0
397,1134.1823679524416
448,0.0432768353125
449,59.97671901033284
450,49.85968850367045
587,1843.1478509024382
588,49.81342028691117
589,59.99999999999999
590,0.0432768353125
120,6844132.263248778
2,1, 1,27, 0,17, 0.00,60.00,Friday
7,-9.8
314,18.102506516201239
315,0.0
379,0.0
393,0.0
394,0.0
396,0.0
397,1118.564426301234
448,0.042495665
449,59.98608336497698
450,49.830109308451159
587,1803.0362006327862
588,49.851947043884887
589,60.0
590,0.042495665
120,6721330.32227803
2,1, 1,27, 0,18, 0.00,60.00,Friday
7,-9.4
314,18.091533185426074
315,0.0
379,0.0
393,0.0
394,0.0
396,0.0
397,980.3832758815082
448,0.03609006843750001
449,59.991339853289087
450,49.50940062354109
587,1537.8880213771538
588,49.80796678068557
589,60.0
590,0.03609006843750001
120,5896396.876957754
2,1, 1,27, 0,19, 0.00,60.00,Friday
7,-9.0
314,18.659174817390629
315,0.0
379,0.0
393,0.0
394,0.0
396,0.0
397,362.3926286860348
448,0.01285583142857143
449,59.99363693599479
450,55.36859429003757
587,552.3337771255478
588,49.7206303786712
589,54.1246598516073
590,0.01285583142857143
120,2341201.5976519726
2,1, 1,27, 0,20, 0.00,60.00,Friday
7,-8.0
314,18.56643589271603
315,0.0
379,0.0
393,0.0
394,0.0
396,0.0
397,271.3981362516068
448,0.009998980000000001
449,59.9944665736942
450,56.40237340365945
587,432.0082909717464
588,49.66285209449302
589,53.10747667388786
590,0.009998980000000001
120,1843229.847498287
2,1, 1,27, 0,21, 0.00,60.00,Friday
7,-7.1
314,17.400023952647066
315,0.0
379,0.0
393,0.0
394,0.0
396,0.0
397,0.0
448,0.0
449,59.9947419891145
450,59.9947419891145
587,0.0
588,49.64470981165194
589,49.64470981165194
590,0.0
120,259200.0
2,1, 1,27, 0,22, 0.00,60.00,Friday
7,-6.1
314,17.124392945458806
315,0.0
379,0.0
393,0.0
394,0.0
396,0.0
397,0.0
448,0.0
449,59.9947419891145
450,59.9947419891145
587,0.0
588,49.64470981165194
589,49.64470981165194
590,0.0
120,324000.0
2,1, 1,27, 0,23, 0.00,60.00,Friday
7,-5.7
314,17.02269172616093
315,0.0
379,0.0
393,0.0
394,0.0
396,0.0
397,0.0
448,0.0
449,59.9947419891145
450,59.9947419891145
587,0.0
588,49.64470981165194
589,49.64470981165194
590,0.0
120,216000.0
2,1, 1,27, 0,24, 0.00,60.00,Friday
7,-5.4
314,16.812461924364944
315,0.0
379,0.0
393,0.0
394,0.0
396,0.0
397,0.0
448,0.0
449,59.9947419891145
450,59.9947419891145
587,0.0
588,49.64470981165194
589,49.64470981165194
590,0.0
120,57600.0
End of Data
 Number of Records Written=         384
