Program Version,EnergyPlus, Version 8.9.0-40101eaafd, YMD=2018.12.18 09:30
1,5,Environment Title[],Latitude[deg],Longitude[deg],Time Zone[],Elevation[m]
2,8,Day of Simulation[],Month[],Day of Month[],DST Indicator[1=yes 0=no],Hour[],StartMinute[],EndMinute[],DayType
3,5,Cumulative Day of Simulation[],Month[],Day of Month[],DST Indicator[1=yes 0=no],DayType  ! When Daily Report Variables Requested
4,2,Cumulative Days of Simulation[],Month[]  ! When Monthly Report Variables Requested
5,1,Cumulative Days of Simulation[] ! When Run Period Report Variables Requested
6,1,Calendar Year of Simulation[] ! When Annual Report Variables Requested
7,1,Environment,Site Outdoor Air Drybulb Temperature [C] !Hourly
94,1,ZONE ONE,Zone Air Temperature [C] !Hourly
95,1,RADIATOR,Baseboard Total Heating Rate [W] !Hourly
158,1,RADIATOR,Baseboard Hot Water Mass Flow Rate [kg/s] !Hourly
159,1,RADIATOR,Baseboard Water Inlet Temperature [C] !Hourly
160,1,RADIATOR,Baseboard Water Outlet Temperature [C] !Hourly
198,1,DISTRICT HEATING 1,District Heating Rate [W] !Hourly
199,1,DISTRICT HEATING 1,District Heating Inlet Temperature [C] !Hourly
200,1,DISTRICT HEATING 1,District Heating Outlet Temperature [C] !Hourly
201,1,DISTRICT HEATING 1,District Heating Mass Flow Rate [kg/s] !Hourly
163,1,DistrictHeating:Facility [J] !Hourly
End of Data Dictionary
1,ANNUAL SIM 1,  59.65,  17.95,   1.00,  61.00
2,1, 1,27, 0, 1, 0.00,60.00,Friday
7,-17.0
94,15.451491466980878
95,0.0
158,0.0
159,59.99999959750046
160,59.99999959750046
198,0.0
199,50.135277133090429
200,50.135277133090429
201,0.0
163,0.0
2,1, 1,27, 0, 2, 0.00,60.00,Friday
7,-17.0
94,19.8816462142248
95,1486.5390859117556
158,0.04959455021484376
159,59.931757225700398
160,50.46475157317451
198,1988.9056450170433
199,50.19018178671398
200,59.78252947336132
201,0.04959455021484376
163,7160060.322061355
2,1, 1,27, 0, 3, 0.00,60.00,Friday
7,-17.0
94,19.96609474079813
95,1397.8618055177521
158,0.0499949
159,59.93233052848565
160,50.87288732503195
198,1988.7703236031846
199,50.48610043216628
200,60.0
201,0.0499949
163,7159573.164971464
2,1, 1,27, 0, 4, 0.00,60.00,Friday
7,-17.0
94,18.692106830815797
95,1241.4307643103816
158,0.045193957454427089
159,59.961119569185758
160,50.230567618544949
198,1789.5575847512848
199,50.5333745107926
200,60.0
201,0.045193957454427089
163,6442407.305104625
2,1, 1,27, 0, 5, 0.00,60.00,Friday
7,-16.9
94,18.576705751423508
95,1361.0510539481793
158,0.04647963359375
159,59.977993845742549
160,50.17163335285221
198,1858.4943712209379
199,50.43686612273276
200,59.99999999999999
201,0.04647963359375
163,6690579.736395377
2,1, 1,27, 0, 6, 0.00,60.00,Friday
7,-16.7
94,18.55962057184234
95,1326.535804243526
158,0.044722000390624998
159,59.98728096986774
160,50.08302462726382
198,1807.7162811016158
199,50.332480277161199
200,60.0
201,0.044722000390624998
163,6507778.6119658169
2,1, 1,27, 0, 7, 0.00,60.00,Friday
7,-16.6
94,18.566726845762184
95,1346.6968966945806
158,0.045503170703125
159,59.99259530706975
160,50.12285398035656
198,1852.1750401575205
199,50.264703075103287
200,60.0
201,0.045503170703125
163,6667830.144567073
2,1, 1,27, 0, 8, 0.00,60.00,Friday
7,-15.8
94,18.55331538524575
95,1316.8243345428104
158,0.0442337689453125
159,59.99568128853711
160,50.06213979660633
198,1808.9083244991834
199,50.21922347151151
200,59.999999999999989
201,0.0442337689453125
163,6512069.968197061
2,1, 1,27, 0, 9, 0.00,60.00,Friday
7,-15.0
94,18.534250594565799
95,1268.6749176187082
158,0.042183196875
159,59.99743144446092
160,49.95590699172594
198,1735.6313000532755
199,50.15918194643167
200,60.0
201,0.042183196875
163,6248272.680191792
2,1, 1,27, 0,10, 0.00,60.00,Friday
7,-14.2
94,18.487139206485329
95,1156.6519517334762
158,0.037691467578125
159,59.99841291031561
160,49.72617637426976
198,1566.190009886558
199,50.061549549547297
200,60.0
201,0.037691467578125
163,5638284.035591609
2,1, 1,27, 0,11, 0.00,60.00,Friday
7,-13.1
94,18.44527384942072
95,1050.0997685570478
158,0.0335903234375
159,59.9989670502529
160,49.51487698155225
198,1414.255321183631
199,49.92987352366525
200,59.99999999999999
201,0.0335903234375
163,5091319.156261072
2,1, 1,27, 0,12, 0.00,60.00,Friday
7,-12.1
94,18.402605304977099
95,946.287861846635
158,0.029879764453125
159,59.999295206736388
160,49.33217690249833
198,1275.5413057668286
199,49.78962811815939
200,60.0
201,0.029879764453125
163,4591948.700760583
2,1, 1,27, 0,13, 0.00,60.00,Friday
7,-11.0
94,18.9974984630158
95,1018.6730895600588
158,0.03177166130371094
159,59.99951724975044
160,49.531669353472157
198,1366.359926925471
199,49.71300163962399
200,60.0
201,0.03177166130371094
163,4918895.736931696
2,1, 1,27, 0,14, 0.00,60.00,Friday
7,-10.7
94,19.942819100650256
95,1226.14554025818
158,0.0397029811328125
159,59.93847476581715
160,50.08228768217916
198,1664.2808227795074
199,49.802618711480928
200,59.86053142597437
201,0.0397029811328125
163,5991410.962006226
2,1, 1,27, 0,15, 0.00,60.00,Friday
7,-10.5
94,20.571873955895108
95,1401.6878528283205
158,0.049994899999999998
159,59.856046043812678
160,50.64565668274795
198,2000.0
199,50.07008379281704
200,59.63807575803073
201,0.049994899999999998
163,7200000.0
2,1, 1,27, 0,16, 0.00,60.00,Friday
7,-10.2
94,18.889605653425347
95,936.5868011969694
158,0.036348831103515628
159,59.82801921268363
160,49.787025469856619
198,1477.8598186341778
199,50.20570078867654
200,59.946697019747329
201,0.036348831103515628
163,5320295.34708304
2,1, 1,27, 0,17, 0.00,60.00,Friday
7,-9.8
94,17.935836127245897
95,841.7238596392276
158,0.028634774267578126
159,59.87511784322999
160,49.2101366961165
198,1195.5755483200699
199,50.031393767976158
200,60.0
201,0.028634774267578126
163,4304071.9739522519
2,1, 1,27, 0,18, 0.00,60.00,Friday
7,-9.4
94,17.96717948183518
95,894.2243439367708
158,0.02750573905029297
159,59.91255439611734
160,49.0384301135059
198,1173.2663097503387
199,49.80287488974051
200,60.0
201,0.02750573905029297
163,4223758.71510122
2,1, 1,27, 0,19, 0.00,60.00,Friday
7,-9.0
94,18.9537270440327
95,1190.711810797618
158,0.03738225432942708
159,59.88858356122586
160,49.69609450135496
198,1580.2908987987337
199,49.7319285013256
200,59.88220974292189
201,0.03738225432942708
163,5689047.235675441
2,1, 1,27, 0,20, 0.00,60.00,Friday
7,-8.0
94,19.887284775284678
95,1366.4421431170513
158,0.0457961095703125
159,59.83409676596597
160,50.271245932844767
198,1887.1670824153628
199,49.87975694195319
200,59.75217687975341
201,0.0457961095703125
163,6793801.496695306
2,1, 1,27, 0,21, 0.00,60.00,Friday
7,-7.1
94,19.987998547103595
95,1255.4354131806804
158,0.043745537499999997
159,59.882644290647167
160,50.282379792049507
198,1816.5134871928506
199,50.06883502949248
200,60.0
201,0.043745537499999997
163,6539448.553894263
2,1, 1,27, 0,22, 0.00,60.00,Friday
7,-6.1
94,18.04440409258766
95,654.925188237057
158,0.02491607809244792
159,59.92099504324494
160,50.96623248522526
198,1039.2363743323042
199,50.03970989661085
200,58.35595377406892
201,0.02491607809244792
163,3741250.9475962955
2,1, 1,27, 0,23, 0.00,60.00,Friday
7,-5.7
94,17.977979292029568
95,779.6399544159822
158,0.024411572265625
159,59.94189236811649
160,48.94417615335142
198,1042.9462974852952
199,49.789703226890207
200,60.0
201,0.024411572265625
163,3754606.670947063
2,1, 1,27, 0,24, 0.00,60.00,Friday
7,-5.4
94,18.987982935377067
95,1023.7181673600996
158,0.031767592708333337
159,59.903664493118487
160,49.477782943626909
198,1342.5261510467608
199,49.702824968898557
200,59.879968525437508
201,0.031767592708333337
163,4833094.143768339
End of Data
 Number of Records Written=         264
