Program Version,EnergyPlus, Version 8.9.0-40101eaafd, YMD=2018.12.18 09:30
1,5,Environment Title[],Latitude[deg],Longitude[deg],Time Zone[],Elevation[m]
2,8,Day of Simulation[],Month[],Day of Month[],DST Indicator[1=yes 0=no],Hour[],StartMinute[],EndMinute[],DayType
3,5,Cumulative Day of Simulation[],Month[],Day of Month[],DST Indicator[1=yes 0=no],DayType  ! When Daily Meters Requested
4,2,Cumulative Days of Simulation[],Month[]  ! When Monthly Meters Requested
5,1,Cumulative Days of Simulation[] ! When Run Period Meters Requested
6,1,Calendar Year of Simulation[] ! When Annual Meters Requested
163,1,DistrictHeating:Facility [J] !Hourly
End of Data Dictionary
1,ANNUAL SIM 1,  59.65,  17.95,   1.00,  61.00
2,1, 1,27, 0, 1, 0.00,60.00,Friday
163,0.0
2,1, 1,27, 0, 2, 0.00,60.00,Friday
163,7160060.322061355
2,1, 1,27, 0, 3, 0.00,60.00,Friday
163,7159573.164971464
2,1, 1,27, 0, 4, 0.00,60.00,Friday
163,6442407.305104625
2,1, 1,27, 0, 5, 0.00,60.00,Friday
163,6690579.736395377
2,1, 1,27, 0, 6, 0.00,60.00,Friday
163,6507778.6119658169
2,1, 1,27, 0, 7, 0.00,60.00,Friday
163,6667830.144567073
2,1, 1,27, 0, 8, 0.00,60.00,Friday
163,6512069.968197061
2,1, 1,27, 0, 9, 0.00,60.00,Friday
163,6248272.680191792
2,1, 1,27, 0,10, 0.00,60.00,Friday
163,5638284.035591609
2,1, 1,27, 0,11, 0.00,60.00,Friday
163,5091319.156261072
2,1, 1,27, 0,12, 0.00,60.00,Friday
163,4591948.700760583
2,1, 1,27, 0,13, 0.00,60.00,Friday
163,4918895.736931696
2,1, 1,27, 0,14, 0.00,60.00,Friday
163,5991410.962006226
2,1, 1,27, 0,15, 0.00,60.00,Friday
163,7200000.0
2,1, 1,27, 0,16, 0.00,60.00,Friday
163,5320295.34708304
2,1, 1,27, 0,17, 0.00,60.00,Friday
163,4304071.9739522519
2,1, 1,27, 0,18, 0.00,60.00,Friday
163,4223758.71510122
2,1, 1,27, 0,19, 0.00,60.00,Friday
163,5689047.235675441
2,1, 1,27, 0,20, 0.00,60.00,Friday
163,6793801.496695306
2,1, 1,27, 0,21, 0.00,60.00,Friday
163,6539448.553894263
2,1, 1,27, 0,22, 0.00,60.00,Friday
163,3741250.9475962955
2,1, 1,27, 0,23, 0.00,60.00,Friday
163,3754606.670947063
2,1, 1,27, 0,24, 0.00,60.00,Friday
163,4833094.143768339
End of Data
 Number of Records Written=          24
