Program Version,EnergyPlus, Version 8.9.0-40101eaafd, YMD=2018.12.30 14:46
1,5,Environment Title[],Latitude[deg],Longitude[deg],Time Zone[],Elevation[m]
2,8,Day of Simulation[],Month[],Day of Month[],DST Indicator[1=yes 0=no],Hour[],StartMinute[],EndMinute[],DayType
3,5,Cumulative Day of Simulation[],Month[],Day of Month[],DST Indicator[1=yes 0=no],DayType  ! When Daily Report Variables Requested
4,2,Cumulative Days of Simulation[],Month[]  ! When Monthly Report Variables Requested
5,1,Cumulative Days of Simulation[] ! When Run Period Report Variables Requested
6,1,Calendar Year of Simulation[] ! When Annual Report Variables Requested
7,1,Environment,Site Outdoor Air Drybulb Temperature [C] !Hourly
314,1,ZONE ONE,Zone Air Temperature [C] !Hourly
315,1,ERV_1_HX,Heat Exchanger Total Heating Rate [W] !Hourly
379,1,ERV_1_FANSUPPLY,Fan Electric Power [W] !Hourly
393,1,ERV_1_FANSUPPLY,Fan Air Mass Flow Rate [kg/s] !Hourly
394,1,ERV_1_FANEXHAUST,Fan Electric Power [W] !Hourly
396,1,ERV_1_FANEXHAUST,Fan Air Mass Flow Rate [kg/s] !Hourly
397,1,RADIATOR,Baseboard Total Heating Rate [W] !Hourly
448,1,RADIATOR,Baseboard Hot Water Mass Flow Rate [kg/s] !Hourly
449,1,RADIATOR,Baseboard Water Inlet Temperature [C] !Hourly
450,1,RADIATOR,Baseboard Water Outlet Temperature [C] !Hourly
587,1,DISTRICT HEATING 1,District Heating Rate [W] !Hourly
588,1,DISTRICT HEATING 1,District Heating Inlet Temperature [C] !Hourly
589,1,DISTRICT HEATING 1,District Heating Outlet Temperature [C] !Hourly
590,1,DISTRICT HEATING 1,District Heating Mass Flow Rate [kg/s] !Hourly
120,1,DistrictHeating:Facility [J] !Hourly
End of Data Dictionary
1,ANNUAL SIM 1,  59.65,  17.95,   1.00,  61.00
2,1, 1,27, 0, 1, 0.00,60.00,Friday
7,-17.0
314,16.248964719301957
315,0.0
379,0.0
393,0.0
394,0.0
396,0.0
397,0.0
448,0.0
449,59.81990096579189
450,59.81990096579189
587,0.0
588,49.92678004911961
589,49.92678004911961
590,0.0
120,43200.0
2,1, 1,27, 0, 2, 0.00,60.00,Friday
7,-17.0
314,16.06113322502337
315,0.0
379,0.0
393,0.0
394,0.0
396,0.0
397,0.0
448,0.0
449,59.81990096579189
450,59.81990096579189
587,0.0
588,49.92678004911961
589,49.92678004911961
590,0.0
120,43200.0
2,1, 1,27, 0, 3, 0.00,60.00,Friday
7,-17.0
314,15.9960244372201
315,0.0
379,0.0
393,0.0
394,0.0
396,0.0
397,0.0
448,0.0
449,59.81990096579189
450,59.81990096579189
587,0.0
588,49.92678004911961
589,49.92678004911961
590,0.0
120,43200.0
2,1, 1,27, 0, 4, 0.00,60.00,Friday
7,-17.0
314,15.866497063235295
315,0.0
379,0.0
393,0.0
394,0.0
396,0.0
397,0.0
448,0.0
449,59.81990096579189
450,59.81990096579189
587,0.0
588,49.92678004911961
589,49.92678004911961
590,0.0
120,43200.0
2,1, 1,27, 0, 5, 0.00,60.00,Friday
7,-16.9
314,15.65167383072721
315,0.0
379,0.0
393,0.0
394,0.0
396,0.0
397,0.0
448,0.0
449,59.81990096579189
450,59.81990096579189
587,0.0
588,49.92678004911961
589,49.92678004911961
590,0.0
120,43200.0
2,1, 1,27, 0, 6, 0.00,60.00,Friday
7,-16.7
314,20.260458714602174
315,0.0
379,0.0
393,0.0
394,0.0
396,0.0
397,1396.086674167999
448,0.04999489999999999
449,59.74616121523407
450,50.322322821855419
587,2000.0
588,49.99815823866646
589,59.566207274234148
590,0.04999489999999999
120,7243200.000000001
2,1, 1,27, 0, 7, 0.00,60.00,Friday
7,-16.6
314,20.09342835767524
315,0.0
379,0.0
393,0.0
394,0.0
396,0.0
397,1118.2048710430631
448,0.049994899999999998
449,59.729158809688019
450,50.36936483918694
587,2000.0
588,50.22887103935901
589,59.79672669459423
590,0.049994899999999998
120,7401600.0
2,1, 1,27, 0, 8, 0.00,60.00,Friday
7,-15.8
314,20.09814522511091
315,0.0
379,0.0
393,0.0
394,0.0
396,0.0
397,966.5276566885282
448,0.03648065359375001
449,59.7995937771714
450,49.735874796784148
587,1495.9676345622922
588,50.19220378456623
589,60.00000000000001
590,0.03648065359375001
120,5738283.484424252
2,1, 1,27, 0, 9, 0.00,60.00,Friday
7,-15.0
314,17.563600369882516
315,0.0
379,0.0
393,0.0
394,0.0
396,0.0
397,1065.6558622719972
448,0.047138048571428569
449,59.80965238199277
450,49.81121714053092
587,1891.7098009246633
588,50.069546380149549
589,59.68535199602177
590,0.047138048571428569
120,7112555.283328788
2,1, 1,27, 0,10, 0.00,60.00,Friday
7,-14.2
314,17.582624377188428
315,0.0
379,0.0
393,0.0
394,0.0
396,0.0
397,1298.8294157231098
448,0.0499949
449,59.704470327976888
450,49.7003422245033
587,2000.0
588,49.95504181779934
589,59.5231275506266
590,0.0499949
120,7430400.0
2,1, 1,27, 0,11, 0.00,60.00,Friday
7,-13.1
314,18.221265764080124
315,0.0
379,0.0
393,0.0
394,0.0
396,0.0
397,1279.469545328703
448,0.049994899999999998
449,59.60697737957929
450,49.84613197145455
587,2000.0
588,49.8993334028372
589,59.467444633175258
590,0.049994899999999998
120,7394400.0
2,1, 1,27, 0,12, 0.00,60.00,Friday
7,-12.1
314,18.509757843311577
315,0.0
379,0.0
393,0.0
394,0.0
396,0.0
397,1241.1319580327845
448,0.0499949
449,59.54929086334026
450,49.89525106415027
587,2000.0
588,49.92186364949224
589,59.489964567813938
590,0.0499949
120,7437600.0
2,1, 1,27, 0,13, 0.00,60.00,Friday
7,-11.0
314,18.928220812848843
315,0.0
379,0.0
393,0.0
394,0.0
396,0.0
397,1246.4426962625362
448,0.0499949
449,59.53032568892968
450,49.982333194630928
587,2000.0
588,49.95706041597476
589,59.52514522490476
590,0.0499949
120,7495200.0
2,1, 1,27, 0,14, 0.00,60.00,Friday
7,-10.7
314,18.843720620279489
315,0.0
379,0.0
393,0.0
394,0.0
396,0.0
397,1231.0540024439654
448,0.0499949
449,59.545846867620728
450,50.07330523326173
587,2000.0
588,50.02597801383683
589,59.59401938975598
590,0.0499949
120,7452000.0
2,1, 1,27, 0,15, 0.00,60.00,Friday
7,-10.5
314,18.690695181020766
315,0.0
379,0.0
393,0.0
394,0.0
396,0.0
397,1228.1949987839726
448,0.0499949
449,59.57922255883297
450,50.0759217151835
587,2000.0
588,50.077471771197448
589,59.64546601095306
590,0.0499949
120,7444800.0
2,1, 1,27, 0,16, 0.00,60.00,Friday
7,-10.2
314,18.6246912586808
315,0.0
379,0.0
393,0.0
394,0.0
396,0.0
397,1233.9025311934186
448,0.0499949
449,59.61529435145488
450,50.07322074295426
587,2000.0
588,50.105594231353197
589,59.673562728672219
590,0.0499949
120,7408800.0
2,1, 1,27, 0,17, 0.00,60.00,Friday
7,-9.8
314,18.688090037222826
315,0.0
379,0.0
393,0.0
394,0.0
396,0.0
397,1236.8988785984845
448,0.0499949
449,59.6453801258823
450,50.082263329999168
587,2000.0
588,50.122722371761877
589,59.690675190574918
590,0.0499949
120,7430400.0
2,1, 1,27, 0,18, 0.00,60.00,Friday
7,-9.4
314,19.016053282909934
315,0.0
379,0.0
393,0.0
394,0.0
396,0.0
397,1179.9773853677748
448,0.046635867656249999
449,59.71415726719567
450,50.01083643020964
587,1910.0875871056123
588,50.12576213117573
589,59.92619675279956
590,0.046635867656249999
120,7236315.313580204
2,1, 1,27, 0,19, 0.00,60.00,Friday
7,-9.0
314,19.5303260241375
315,0.0
379,0.0
393,0.0
394,0.0
396,0.0
397,493.17894293514225
448,0.017998164000000005
449,59.80129701528966
450,53.505699319416539
587,750.3818225342314
588,50.01948129753866
589,56.00254861283705
590,0.017998164000000005
120,3054174.5611232335
2,1, 1,27, 0,20, 0.00,60.00,Friday
7,-8.0
314,18.497892404795814
315,0.0
379,0.0
393,0.0
394,0.0
396,0.0
397,306.17826991536045
448,0.011998776000000003
449,59.82945129118016
450,55.49711313636805
587,506.5656889266592
588,49.914783226522349
589,53.953846710309139
590,0.011998776000000003
120,2111636.480135973
2,1, 1,27, 0,21, 0.00,60.00,Friday
7,-7.1
314,17.64361291656199
315,0.0
379,0.0
393,0.0
394,0.0
396,0.0
397,0.0
448,0.0
449,59.843687111436349
450,59.843687111436349
587,0.0
588,49.841576015631847
589,49.841576015631847
590,0.0
120,259200.0
2,1, 1,27, 0,22, 0.00,60.00,Friday
7,-6.1
314,17.455762416851024
315,0.0
379,0.0
393,0.0
394,0.0
396,0.0
397,0.0
448,0.0
449,59.843687111436349
450,59.843687111436349
587,0.0
588,49.841576015631847
589,49.841576015631847
590,0.0
120,324000.0
2,1, 1,27, 0,23, 0.00,60.00,Friday
7,-5.7
314,17.255174063970203
315,0.0
379,0.0
393,0.0
394,0.0
396,0.0
397,0.0
448,0.0
449,59.843687111436349
450,59.843687111436349
587,0.0
588,49.841576015631847
589,49.841576015631847
590,0.0
120,216000.0
2,1, 1,27, 0,24, 0.00,60.00,Friday
7,-5.4
314,17.004345602228047
315,0.0
379,0.0
393,0.0
394,0.0
396,0.0
397,0.0
448,0.0
449,59.843687111436349
450,59.843687111436349
587,0.0
588,49.841576015631847
589,49.841576015631847
590,0.0
120,57600.0
End of Data
 Number of Records Written=         384
