Program Version,EnergyPlus, Version 8.9.0-40101eaafd, YMD=2018.11.30 14:37
1,5,Environment Title[],Latitude[deg],Longitude[deg],Time Zone[],Elevation[m]
2,8,Day of Simulation[],Month[],Day of Month[],DST Indicator[1=yes 0=no],Hour[],StartMinute[],EndMinute[],DayType
3,5,Cumulative Day of Simulation[],Month[],Day of Month[],DST Indicator[1=yes 0=no],DayType  ! When Daily Report Variables Requested
4,2,Cumulative Days of Simulation[],Month[]  ! When Monthly Report Variables Requested
5,1,Cumulative Days of Simulation[] ! When Run Period Report Variables Requested
6,1,Calendar Year of Simulation[] ! When Annual Report Variables Requested
7,1,Environment,Site Outdoor Air Drybulb Temperature [C] !Hourly
94,1,ZONE ONE,Zone Air Temperature [C] !Hourly
95,1,RADIATOR,Baseboard Total Heating Rate [W] !Hourly
158,1,RADIATOR,Baseboard Hot Water Mass Flow Rate [kg/s] !Hourly
159,1,RADIATOR,Baseboard Water Inlet Temperature [C] !Hourly
160,1,RADIATOR,Baseboard Water Outlet Temperature [C] !Hourly
198,1,DISTRICT HEATING 1,District Heating Rate [W] !Hourly
199,1,DISTRICT HEATING 1,District Heating Inlet Temperature [C] !Hourly
200,1,DISTRICT HEATING 1,District Heating Outlet Temperature [C] !Hourly
201,1,DISTRICT HEATING 1,District Heating Mass Flow Rate [kg/s] !Hourly
163,1,DistrictHeating:Facility [J] !Hourly
End of Data Dictionary
1,ANNUAL SIM 1,  59.65,  17.95,   1.00,  61.00
2,1, 1, 1, 0, 1, 0.00,60.00,Sunday
7,4.0
94,19.285686051834884
95,676.9675018964055
158,0.021897180322265627
159,58.74336947414384
160,48.24908940119603
198,0.0
199,49.15217973425514
200,49.15217973425514
201,0.021897180322265627
163,0.0
2,1, 1, 1, 0, 2, 0.00,60.00,Sunday
7,5.3
94,19.271278211518078
95,625.0051131278296
158,0.021286891015625005
159,56.65723261079237
160,46.68717862203893
198,108.81593256616543
199,48.777284306457598
200,50.0
201,0.021286891015625005
163,391737.35723819557
2,1, 1, 1, 0, 3, 0.00,60.00,Sunday
7,6.2
94,19.25036806665449
95,577.0164837748016
158,0.02045689755859375
159,55.17163673191314
160,45.56804312303066
198,153.81185083363133
199,48.201513323823878
200,50.0
201,0.02045689755859375
163,553722.6630010728
2,1, 1, 1, 0, 4, 0.00,60.00,Sunday
7,6.8
94,19.238038365527446
95,547.0922697308499
158,0.0200174892578125
159,54.05150828065328
160,44.72871832365252
198,204.66219467516695
199,47.55432543838196
200,50.0
201,0.0200174892578125
163,736783.900830601
2,1, 1, 1, 0, 5, 0.00,60.00,Sunday
7,7.2
94,19.229254109613515
95,525.6098103166626
158,0.019724550390624999
159,53.18942531644745
160,44.08571523197632
198,255.77310741559334
199,46.89806962099306
200,50.0
201,0.019724550390624999
163,920783.186696136
2,1, 1, 1, 0, 6, 0.00,60.00,Sunday
7,7.5
94,19.220692139696565
95,510.08750725899969
158,0.0195292578125
159,52.517845934545629
160,43.58625108687751
198,304.7314884013005
199,46.26724934616055
200,50.0
201,0.0195292578125
163,1097033.3582446818
2,1, 1, 1, 0, 7, 0.00,60.00,Sunday
7,7.5
94,19.21868370288978
95,505.8695703369735
158,0.019700138818359374
159,51.98897670490337
160,43.2009119077734
198,356.03471369847616
199,45.67652732879577
200,50.0
201,0.019700138818359374
163,1281724.9693145143
2,1, 1, 1, 0, 8, 0.00,60.00,Sunday
7,6.7
94,19.22904400251601
95,529.719056201765
158,0.0209939521484375
159,51.55830882418391
160,42.91869795835233
198,428.0573512805471
199,45.12214443024435
200,49.99999999999999
201,0.0209939521484375
163,1541006.4646099697
2,1, 1, 1, 0, 9, 0.00,60.00,Sunday
7,6.0
94,19.24122704512188
95,560.5914659974117
158,0.0225562927734375
159,51.20008871511238
160,42.701930530965729
198,508.7423848756601
199,44.604223941487699
200,49.99999999999999
201,0.0225562927734375
163,1831472.5855523763
2,1, 1, 1, 0,10, 0.00,60.00,Sunday
7,5.2
94,19.24881764323632
95,573.8783471483098
158,0.0233374630859375
159,50.91139166583879
160,42.51550646341358
198,571.7964126706345
199,44.13846313728647
200,50.00000000000001
201,0.0233374630859375
163,2058467.085614284
2,1, 1, 1, 0,11, 0.00,60.00,Sunday
7,5.2
94,19.22635268183967
95,515.5705077028668
158,0.02094512900390625
159,50.69788923861083
160,42.294250651095328
198,547.3150521209029
199,43.74858873795863
200,49.99999999999999
201,0.02094512900390625
163,1970334.1876352507
2,1, 1, 1, 0,12, 0.00,60.00,Sunday
7,5.2
94,19.2018623322997
95,469.6673179749611
158,0.019187495800781254
159,50.54806701444175
160,42.13447936432051
198,526.6365135074162
199,43.433765518909208
200,49.99999999999999
201,0.019187495800781254
163,1895891.4486266985
2,1, 1, 1, 0,13, 0.00,60.00,Sunday
7,5.2
94,19.195396169995467
95,449.1906719429986
158,0.01835750234375
159,50.43736905015146
160,42.02765995930251
198,523.8122412766952
199,43.17369373168306
200,50.0
201,0.01835750234375
163,1885724.0685961028
2,1, 1, 1, 0,14, 0.00,60.00,Sunday
7,4.6
94,19.197300337315203
95,451.8800482983276
158,0.018552794921874999
159,50.350491368958987
160,41.96678194455191
198,546.5232883353582
199,42.952695336906149
200,50.0
201,0.018552794921874999
163,1967483.8380072895
2,1, 1, 1, 0,15, 0.00,60.00,Sunday
7,4.1
94,19.233831101853558
95,572.8466605305293
158,0.024118633398437503
159,50.2717009100435
160,42.05603966260019
198,730.161827063812
199,42.75747261263805
200,50.0
201,0.024118633398437503
163,2628582.577429723
2,1, 1, 1, 0,16, 0.00,60.00,Sunday
7,3.5
94,19.285030561802527
95,668.3448845930395
158,0.028366246972656253
159,50.19861535576975
160,42.14540207538349
198,877.4463735795418
199,42.59981764312249
200,50.0
201,0.028366246972656253
163,3158806.9448863507
2,1, 1, 1, 0,17, 0.00,60.00,Sunday
7,3.2
94,19.302760569622586
95,705.4795313898995
158,0.03012388017578125
159,50.13987256366924
160,42.17448066883172
198,945.7126563975295
199,42.48944539465566
200,50.00000000000001
201,0.03012388017578125
163,3404565.5630311064
2,1, 1, 1, 0,18, 0.00,60.00,Sunday
7,2.9
94,19.312385966632449
95,725.8675882827766
158,0.0311491662109375
159,50.096902598544058
160,42.18258390626085
198,987.7238779406102
199,42.41399988511668
200,49.99999999999999
201,0.0311491662109375
163,3555805.9605861969
2,1, 1, 1, 0,19, 0.00,60.00,Sunday
7,2.6
94,19.315202316566397
95,737.2513447764851
158,0.0317350439453125
159,50.06642234957012
160,42.18288646499985
198,1013.2235953511422
199,42.36181964215433
200,49.99999999999999
201,0.0317350439453125
163,3647604.943264112
2,1, 1, 1, 0,20, 0.00,60.00,Sunday
7,2.5
94,19.32080234325882
95,742.788119684538
158,0.032027982812499997
159,50.04532244957198
160,42.178213426619809
198,1027.523883501951
199,42.324864406081328
200,50.0
201,0.032027982812499997
163,3699085.980607024
2,1, 1, 1, 0,21, 0.00,60.00,Sunday
7,2.4
94,19.31844756573571
95,742.3894820058725
158,0.032027982812499997
159,50.030850508234127
160,42.16886988985317
198,1031.2177236081168
199,42.29727310223693
200,50.0
201,0.032027982812499997
163,3712383.8049892208
2,1, 1, 1, 0,22, 0.00,60.00,Sunday
7,2.3
94,19.316971203502577
95,742.2118233504069
158,0.032027982812499997
159,50.02100537221102
160,42.16093543397329
198,1034.0999615006194
199,42.275744097418577
200,50.0
201,0.032027982812499997
163,3722759.86140223
2,1, 1, 1, 0,23, 0.00,60.00,Sunday
7,2.3
94,19.317612126516424
95,744.1510015255345
158,0.0321256291015625
159,50.01429421326229
160,42.15900313822501
198,1039.4269574278196
199,42.25955278756995
200,50.0
201,0.0321256291015625
163,3741937.0467401507
2,1, 1, 1, 0,24, 0.00,60.00,Sunday
7,2.2
94,19.32227138389996
95,749.693052023637
158,0.03241856796874999
159,50.00970521418945
160,42.166107310882498
198,1050.2794130613306
199,42.249410346533718
200,49.99999999999999
201,0.03241856796874999
163,3781005.88702079
End of Data
 Number of Records Written=         264
